# vtk DataFile Version 3.0
OpenGLDP timing structured grid
ASCII
DATASET STRUCTURED_GRID
DIMENSIONS 20 20 20
POINTS 8000 float
0.000000 0.000000 0.000000
0.052632 0.000000 0.000000
0.105263 0.000000 0.000000
0.157895 0.000000 0.000000
0.210526 0.000000 0.000000
0.263158 0.000000 0.000000
0.315789 0.000000 0.000000
0.368421 0.000000 0.000000
0.421053 0.000000 0.000000
0.473684 0.000000 0.000000
0.526316 0.000000 0.000000
0.578947 0.000000 0.000000
0.631579 0.000000 0.000000
0.684211 0.000000 0.000000
0.736842 0.000000 0.000000
0.789474 0.000000 0.000000
0.842105 0.000000 0.000000
0.894737 0.000000 0.000000
0.947368 0.000000 0.000000
1.000000 0.000000 0.000000
0.000000 0.052632 0.000000
0.052632 0.052632 0.000000
0.105263 0.052632 0.000000
0.157895 0.052632 0.000000
0.210526 0.052632 0.000000
0.263158 0.052632 0.000000
0.315789 0.052632 0.000000
0.368421 0.052632 0.000000
0.421053 0.052632 0.000000
0.473684 0.052632 0.000000
0.526316 0.052632 0.000000
0.578947 0.052632 0.000000
0.631579 0.052632 0.000000
0.684211 0.052632 0.000000
0.736842 0.052632 0.000000
0.789474 0.052632 0.000000
0.842105 0.052632 0.000000
0.894737 0.052632 0.000000
0.947368 0.052632 0.000000
1.000000 0.052632 0.000000
0.000000 0.105263 0.000000
0.052632 0.105263 0.000000
0.105263 0.105263 0.000000
0.157895 0.105263 0.000000
0.210526 0.105263 0.000000
0.263158 0.105263 0.000000
0.315789 0.105263 0.000000
0.368421 0.105263 0.000000
0.421053 0.105263 0.000000
0.473684 0.105263 0.000000
0.526316 0.105263 0.000000
0.578947 0.105263 0.000000
0.631579 0.105263 0.000000
0.684211 0.105263 0.000000
0.736842 0.105263 0.000000
0.789474 0.105263 0.000000
0.842105 0.105263 0.000000
0.894737 0.105263 0.000000
0.947368 0.105263 0.000000
1.000000 0.105263 0.000000
0.000000 0.157895 0.000000
0.052632 0.157895 0.000000
0.105263 0.157895 0.000000
0.157895 0.157895 0.000000
0.210526 0.157895 0.000000
0.263158 0.157895 0.000000
0.315789 0.157895 0.000000
0.368421 0.157895 0.000000
0.421053 0.157895 0.000000
0.473684 0.157895 0.000000
0.526316 0.157895 0.000000
0.578947 0.157895 0.000000
0.631579 0.157895 0.000000
0.684211 0.157895 0.000000
0.736842 0.157895 0.000000
0.789474 0.157895 0.000000
0.842105 0.157895 0.000000
0.894737 0.157895 0.000000
0.947368 0.157895 0.000000
1.000000 0.157895 0.000000
0.000000 0.210526 0.000000
0.052632 0.210526 0.000000
0.105263 0.210526 0.000000
0.157895 0.210526 0.000000
0.210526 0.210526 0.000000
0.263158 0.210526 0.000000
0.315789 0.210526 0.000000
0.368421 0.210526 0.000000
0.421053 0.210526 0.000000
0.473684 0.210526 0.000000
0.526316 0.210526 0.000000
0.578947 0.210526 0.000000
0.631579 0.210526 0.000000
0.684211 0.210526 0.000000
0.736842 0.210526 0.000000
0.789474 0.210526 0.000000
0.842105 0.210526 0.000000
0.894737 0.210526 0.000000
0.947368 0.210526 0.000000
1.000000 0.210526 0.000000
0.000000 0.263158 0.000000
0.052632 0.263158 0.000000
0.105263 0.263158 0.000000
0.157895 0.263158 0.000000
0.210526 0.263158 0.000000
0.263158 0.263158 0.000000
0.315789 0.263158 0.000000
0.368421 0.263158 0.000000
0.421053 0.263158 0.000000
0.473684 0.263158 0.000000
0.526316 0.263158 0.000000
0.578947 0.263158 0.000000
0.631579 0.263158 0.000000
0.684211 0.263158 0.000000
0.736842 0.263158 0.000000
0.789474 0.263158 0.000000
0.842105 0.263158 0.000000
0.894737 0.263158 0.000000
0.947368 0.263158 0.000000
1.000000 0.263158 0.000000
0.000000 0.315789 0.000000
0.052632 0.315789 0.000000
0.105263 0.315789 0.000000
0.157895 0.315789 0.000000
0.210526 0.315789 0.000000
0.263158 0.315789 0.000000
0.315789 0.315789 0.000000
0.368421 0.315789 0.000000
0.421053 0.315789 0.000000
0.473684 0.315789 0.000000
0.526316 0.315789 0.000000
0.578947 0.315789 0.000000
0.631579 0.315789 0.000000
0.684211 0.315789 0.000000
0.736842 0.315789 0.000000
0.789474 0.315789 0.000000
0.842105 0.315789 0.000000
0.894737 0.315789 0.000000
0.947368 0.315789 0.000000
1.000000 0.315789 0.000000
0.000000 0.368421 0.000000
0.052632 0.368421 0.000000
0.105263 0.368421 0.000000
0.157895 0.368421 0.000000
0.210526 0.368421 0.000000
0.263158 0.368421 0.000000
0.315789 0.368421 0.000000
0.368421 0.368421 0.000000
0.421053 0.368421 0.000000
0.473684 0.368421 0.000000
0.526316 0.368421 0.000000
0.578947 0.368421 0.000000
0.631579 0.368421 0.000000
0.684211 0.368421 0.000000
0.736842 0.368421 0.000000
0.789474 0.368421 0.000000
0.842105 0.368421 0.000000
0.894737 0.368421 0.000000
0.947368 0.368421 0.000000
1.000000 0.368421 0.000000
0.000000 0.421053 0.000000
0.052632 0.421053 0.000000
0.105263 0.421053 0.000000
0.157895 0.421053 0.000000
0.210526 0.421053 0.000000
0.263158 0.421053 0.000000
0.315789 0.421053 0.000000
0.368421 0.421053 0.000000
0.421053 0.421053 0.000000
0.473684 0.421053 0.000000
0.526316 0.421053 0.000000
0.578947 0.421053 0.000000
0.631579 0.421053 0.000000
0.684211 0.421053 0.000000
0.736842 0.421053 0.000000
0.789474 0.421053 0.000000
0.842105 0.421053 0.000000
0.894737 0.421053 0.000000
0.947368 0.421053 0.000000
1.000000 0.421053 0.000000
0.000000 0.473684 0.000000
0.052632 0.473684 0.000000
0.105263 0.473684 0.000000
0.157895 0.473684 0.000000
0.210526 0.473684 0.000000
0.263158 0.473684 0.000000
0.315789 0.473684 0.000000
0.368421 0.473684 0.000000
0.421053 0.473684 0.000000
0.473684 0.473684 0.000000
0.526316 0.473684 0.000000
0.578947 0.473684 0.000000
0.631579 0.473684 0.000000
0.684211 0.473684 0.000000
0.736842 0.473684 0.000000
0.789474 0.473684 0.000000
0.842105 0.473684 0.000000
0.894737 0.473684 0.000000
0.947368 0.473684 0.000000
1.000000 0.473684 0.000000
0.000000 0.526316 0.000000
0.052632 0.526316 0.000000
0.105263 0.526316 0.000000
0.157895 0.526316 0.000000
0.210526 0.526316 0.000000
0.263158 0.526316 0.000000
0.315789 0.526316 0.000000
0.368421 0.526316 0.000000
0.421053 0.526316 0.000000
0.473684 0.526316 0.000000
0.526316 0.526316 0.000000
0.578947 0.526316 0.000000
0.631579 0.526316 0.000000
0.684211 0.526316 0.000000
0.736842 0.526316 0.000000
0.789474 0.526316 0.000000
0.842105 0.526316 0.000000
0.894737 0.526316 0.000000
0.947368 0.526316 0.000000
1.000000 0.526316 0.000000
0.000000 0.578947 0.000000
0.052632 0.578947 0.000000
0.105263 0.578947 0.000000
0.157895 0.578947 0.000000
0.210526 0.578947 0.000000
0.263158 0.578947 0.000000
0.315789 0.578947 0.000000
0.368421 0.578947 0.000000
0.421053 0.578947 0.000000
0.473684 0.578947 0.000000
0.526316 0.578947 0.000000
0.578947 0.578947 0.000000
0.631579 0.578947 0.000000
0.684211 0.578947 0.000000
0.736842 0.578947 0.000000
0.789474 0.578947 0.000000
0.842105 0.578947 0.000000
0.894737 0.578947 0.000000
0.947368 0.578947 0.000000
1.000000 0.578947 0.000000
0.000000 0.631579 0.000000
0.052632 0.631579 0.000000
0.105263 0.631579 0.000000
0.157895 0.631579 0.000000
0.210526 0.631579 0.000000
0.263158 0.631579 0.000000
0.315789 0.631579 0.000000
0.368421 0.631579 0.000000
0.421053 0.631579 0.000000
0.473684 0.631579 0.000000
0.526316 0.631579 0.000000
0.578947 0.631579 0.000000
0.631579 0.631579 0.000000
0.684211 0.631579 0.000000
0.736842 0.631579 0.000000
0.789474 0.631579 0.000000
0.842105 0.631579 0.000000
0.894737 0.631579 0.000000
0.947368 0.631579 0.000000
1.000000 0.631579 0.000000
0.000000 0.684211 0.000000
0.052632 0.684211 0.000000
0.105263 0.684211 0.000000
0.157895 0.684211 0.000000
0.210526 0.684211 0.000000
0.263158 0.684211 0.000000
0.315789 0.684211 0.000000
0.368421 0.684211 0.000000
0.421053 0.684211 0.000000
0.473684 0.684211 0.000000
0.526316 0.684211 0.000000
0.578947 0.684211 0.000000
0.631579 0.684211 0.000000
0.684211 0.684211 0.000000
0.736842 0.684211 0.000000
0.789474 0.684211 0.000000
0.842105 0.684211 0.000000
0.894737 0.684211 0.000000
0.947368 0.684211 0.000000
1.000000 0.684211 0.000000
0.000000 0.736842 0.000000
0.052632 0.736842 0.000000
0.105263 0.736842 0.000000
0.157895 0.736842 0.000000
0.210526 0.736842 0.000000
0.263158 0.736842 0.000000
0.315789 0.736842 0.000000
0.368421 0.736842 0.000000
0.421053 0.736842 0.000000
0.473684 0.736842 0.000000
0.526316 0.736842 0.000000
0.578947 0.736842 0.000000
0.631579 0.736842 0.000000
0.684211 0.736842 0.000000
0.736842 0.736842 0.000000
0.789474 0.736842 0.000000
0.842105 0.736842 0.000000
0.894737 0.736842 0.000000
0.947368 0.736842 0.000000
1.000000 0.736842 0.000000
0.000000 0.789474 0.000000
0.052632 0.789474 0.000000
0.105263 0.789474 0.000000
0.157895 0.789474 0.000000
0.210526 0.789474 0.000000
0.263158 0.789474 0.000000
0.315789 0.789474 0.000000
0.368421 0.789474 0.000000
0.421053 0.789474 0.000000
0.473684 0.789474 0.000000
0.526316 0.789474 0.000000
0.578947 0.789474 0.000000
0.631579 0.789474 0.000000
0.684211 0.789474 0.000000
0.736842 0.789474 0.000000
0.789474 0.789474 0.000000
0.842105 0.789474 0.000000
0.894737 0.789474 0.000000
0.947368 0.789474 0.000000
1.000000 0.789474 0.000000
0.000000 0.842105 0.000000
0.052632 0.842105 0.000000
0.105263 0.842105 0.000000
0.157895 0.842105 0.000000
0.210526 0.842105 0.000000
0.263158 0.842105 0.000000
0.315789 0.842105 0.000000
0.368421 0.842105 0.000000
0.421053 0.842105 0.000000
0.473684 0.842105 0.000000
0.526316 0.842105 0.000000
0.578947 0.842105 0.000000
0.631579 0.842105 0.000000
0.684211 0.842105 0.000000
0.736842 0.842105 0.000000
0.789474 0.842105 0.000000
0.842105 0.842105 0.000000
0.894737 0.842105 0.000000
0.947368 0.842105 0.000000
1.000000 0.842105 0.000000
0.000000 0.894737 0.000000
0.052632 0.894737 0.000000
0.105263 0.894737 0.000000
0.157895 0.894737 0.000000
0.210526 0.894737 0.000000
0.263158 0.894737 0.000000
0.315789 0.894737 0.000000
0.368421 0.894737 0.000000
0.421053 0.894737 0.000000
0.473684 0.894737 0.000000
0.526316 0.894737 0.000000
0.578947 0.894737 0.000000
0.631579 0.894737 0.000000
0.684211 0.894737 0.000000
0.736842 0.894737 0.000000
0.789474 0.894737 0.000000
0.842105 0.894737 0.000000
0.894737 0.894737 0.000000
0.947368 0.894737 0.000000
1.000000 0.894737 0.000000
0.000000 0.947368 0.000000
0.052632 0.947368 0.000000
0.105263 0.947368 0.000000
0.157895 0.947368 0.000000
0.210526 0.947368 0.000000
[...]
CELL_DATA 6859
SCALARS scalars float
LOOKUP_TABLE default
0.106579 0.185526 0.264474 0.343421 0.422368 0.501316 0.580263 0.659211 0.738158
0.817105 0.896053 0.975000 1.053947 1.132895 1.211842 1.290789 1.369737 1.448684
1.527632 0.001316 0.080263 0.159211 0.238158 0.317105 0.396053 0.475000 0.553947
0.632895 0.711842 0.790789 0.869737 0.948684 1.027632 1.106579 1.185526 1.264474
1.343421 1.422368 -0.103947 -0.025000 0.053947 0.132895 0.211842 0.290789 0.369737
0.448684 0.527632 0.606579 0.685526 0.764474 0.843421 0.922368 1.001316 1.080263
1.159211 1.238158 1.317105 -0.209211 -0.130263 -0.051316 0.027632 0.106579 0.185526
0.264474 0.343421 0.422368 0.501316 0.580263 0.659211 0.738158 0.817105 0.896053
0.975000 1.053947 1.132895 1.211842 -0.314474 -0.235526 -0.156579 -0.077632 0.001316
0.080263 0.159211 0.238158 0.317105 0.396053 0.475000 0.553947 0.632895 0.711842
0.790789 0.869737 0.948684 1.027632 1.106579 -0.419737 -0.340789 -0.261842 -0.182895
-0.103947 -0.025000 0.053947 0.132895 0.211842 0.290789 0.369737 0.448684 0.527632
0.606579 0.685526 0.764474 0.843421 0.922368 1.001316 -0.525000 -0.446053 -0.367105
-0.288158 -0.209211 -0.130263 -0.051316 0.027632 0.106579 0.185526 0.264474 0.343421
0.422368 0.501316 0.580263 0.659211 0.738158 0.817105 0.896053 -0.630263 -0.551316
-0.472368 -0.393421 -0.314474 -0.235526 -0.156579 -0.077632 0.001316 0.080263 0.159211
0.238158 0.317105 0.396053 0.475000 0.553947 0.632895 0.711842 0.790789 -0.735526
-0.656579 -0.577632 -0.498684 -0.419737 -0.340789 -0.261842 -0.182895 -0.103947 -0.025000
0.053947 0.132895 0.211842 0.290789 0.369737 0.448684 0.527632 0.606579 0.685526
-0.840789 -0.761842 -0.682895 -0.603947 -0.525000 -0.446053 -0.367105 -0.288158 -0.209211
-0.130263 -0.051316 0.027632 0.106579 0.185526 0.264474 0.343421 0.422368 0.501316
0.580263 -0.946053 -0.867105 -0.788158 -0.709211 -0.630263 -0.551316 -0.472368 -0.393421
-0.314474 -0.235526 -0.156579 -0.077632 0.001316 0.080263 0.159211 0.238158 0.317105
0.396053 0.475000 -1.051316 -0.972368 -0.893421 -0.814474 -0.735526 -0.656579 -0.577632
-0.498684 -0.419737 -0.340789 -0.261842 -0.182895 -0.103947 -0.025000 0.053947 0.132895
0.211842 0.290789 0.369737 -1.156579 -1.077632 -0.998684 -0.919737 -0.840789 -0.761842
-0.682895 -0.603947 -0.525000 -0.446053 -0.367105 -0.288158 -0.209211 -0.130263 -0.051316
0.027632 0.106579 0.185526 0.264474 -1.261842 -1.182895 -1.103947 -1.025000 -0.946053
-0.867105 -0.788158 -0.709211 -0.630263 -0.551316 -0.472368 -0.393421 -0.314474 -0.235526
-0.156579 -0.077632 0.001316 0.080263 0.159211 -1.367105 -1.288158 -1.209211 -1.130263
-1.051316 -0.972368 -0.893421 -0.814474 -0.735526 -0.656579 -0.577632 -0.498684 -0.419737
-0.340789 -0.261842 -0.182895 -0.103947 -0.025000 0.053947 -1.472368 -1.393421 -1.314474
-1.235526 -1.156579 -1.077632 -0.998684 -0.919737 -0.840789 -0.761842 -0.682895 -0.603947
-0.525000 -0.446053 -0.367105 -0.288158 -0.209211 -0.130263 -0.051316 -1.577632 -1.498684
-1.419737 -1.340789 -1.261842 -1.182895 -1.103947 -1.025000 -0.946053 -0.867105 -0.788158
-0.709211 -0.630263 -0.551316 -0.472368 -0.393421 -0.314474 -0.235526 -0.156579 -1.682895
-1.603947 -1.525000 -1.446053 -1.367105 -1.288158 -1.209211 -1.130263 -1.051316 -0.972368
-0.893421 -0.814474 -0.735526 -0.656579 -0.577632 -0.498684 -0.419737 -0.340789 -0.261842
-1.788158 -1.709211 -1.630263 -1.551316 -1.472368 -1.393421 -1.314474 -1.235526 -1.156579
-1.077632 -0.998684 -0.919737 -0.840789 -0.761842 -0.682895 -0.603947 -0.525000 -0.446053
-0.367105 0.146053 0.225000 0.303947 0.382895 0.461842 0.540789 0.619737 0.698684
0.777632 0.856579 0.935526 1.014474 1.093421 1.172368 1.251316 1.330263 1.409211
1.488158 1.567105 0.040789 0.119737 0.198684 0.277632 0.356579 0.435526 0.514474
0.593421 0.672368 0.751316 0.830263 0.909211 0.988158 1.067105 1.146053 1.225000
1.303947 1.382895 1.461842 -0.064474 0.014474 0.093421 0.172368 0.251316 0.330263
0.409211 0.488158 0.567105 0.646053 0.725000 0.803947 0.882895 0.961842 1.040789
1.119737 1.198684 1.277632 1.356579 -0.169737 -0.090789 -0.011842 0.067105 0.146053
0.225000 0.303947 0.382895 0.461842 0.540789 0.619737 0.698684 0.777632 0.856579
0.935526 1.014474 1.093421 1.172368 1.251316 -0.275000 -0.196053 -0.117105 -0.038158
0.040789 0.119737 0.198684 0.277632 0.356579 0.435526 0.514474 0.593421 0.672368
0.751316 0.830263 0.909211 0.988158 1.067105 1.146053 -0.380263 -0.301316 -0.222368
-0.143421 -0.064474 0.014474 0.093421 0.172368 0.251316 0.330263 0.409211 0.488158
0.567105 0.646053 0.725000 0.803947 0.882895 0.961842 1.040789 -0.485526 -0.406579
-0.327632 -0.248684 -0.169737 -0.090789 -0.011842 0.067105 0.146053 0.225000 0.303947
0.382895 0.461842 0.540789 0.619737 0.698684 0.777632 0.856579 0.935526 -0.590789
-0.511842 -0.432895 -0.353947 -0.275000 -0.196053 -0.117105 -0.038158 0.040789 0.119737
0.198684 0.277632 0.356579 0.435526 0.514474 0.593421 0.672368 0.751316 0.830263
-0.696053 -0.617105 -0.538158 -0.459211 -0.380263 -0.301316 -0.222368 -0.143421 -0.064474
0.014474 0.093421 0.172368 0.251316 0.330263 0.409211 0.488158 0.567105 0.646053
0.725000 -0.801316 -0.722368 -0.643421 -0.564474 -0.485526 -0.406579 -0.327632 -0.248684
-0.169737 -0.090789 -0.011842 0.067105 0.146053 0.225000 0.303947 0.382895 0.461842
0.540789 0.619737 -0.906579 -0.827632 -0.748684 -0.669737 -0.590789 -0.511842 -0.432895
-0.353947 -0.275000 -0.196053 -0.117105 -0.038158 0.040789 0.119737 0.198684 0.277632
0.356579 0.435526 0.514474 -1.011842 -0.932895 -0.853947 -0.775000 -0.696053 -0.617105
-0.538158 -0.459211 -0.380263 -0.301316 -0.222368 -0.143421 -0.064474 0.014474 0.093421
0.172368 0.251316 0.330263 0.409211 -1.117105 -1.038158 -0.959211 -0.880263 -0.801316
-0.722368 -0.643421 -0.564474 -0.485526 -0.406579 -0.327632 -0.248684 -0.169737 -0.090789
-0.011842 0.067105 0.146053 0.225000 0.303947 -1.222368 -1.143421 -1.064474 -0.985526
-0.906579 -0.827632 -0.748684 -0.669737 -0.590789 -0.511842 -0.432895 -0.353947 -0.275000
-0.196053 -0.117105 -0.038158 0.040789 0.119737 0.198684 -1.327632 -1.248684 -1.169737
-1.090789 -1.011842 -0.932895 -0.853947 -0.775000 -0.696053 -0.617105 -0.538158 -0.459211
-0.380263 -0.301316 -0.222368 -0.143421 -0.064474 0.014474 0.093421 -1.432895 -1.353947
-1.275000 -1.196053 -1.117105 -1.038158 -0.959211 -0.880263 -0.801316 -0.722368 -0.643421
-0.564474 -0.485526 -0.406579 -0.327632 -0.248684 -0.169737 -0.090789 -0.011842 -1.538158
-1.459211 -1.380263 -1.301316 -1.222368 -1.143421 -1.064474 -0.985526 -0.906579 -0.827632
-0.748684 -0.669737 -0.590789 -0.511842 -0.432895 -0.353947 -0.275000 -0.196053 -0.117105
-1.643421 -1.564474 -1.485526 -1.406579 -1.327632 -1.248684 -1.169737 -1.090789 -1.011842
-0.932895 -0.853947 -0.775000 -0.696053 -0.617105 -0.538158 -0.459211 -0.380263 -0.301316
-0.222368 -1.748684 -1.669737 -1.590789 -1.511842 -1.432895 -1.353947 -1.275000 -1.196053
-1.117105 -1.038158 -0.959211 -0.880263 -0.801316 -0.722368 -0.643421 -0.564474 -0.485526
-0.406579 -0.327632 0.185526 0.264474 0.343421 0.422368 0.501316 0.580263 0.659211
0.738158 0.817105 0.896053 0.975000 1.053947 1.132895 1.211842 1.290789 1.369737
1.448684 1.527632 1.606579 0.080263 0.159211 0.238158 0.317105 0.396053 0.475000
0.553947 0.632895 0.711842 0.790789 0.869737 0.948684 1.027632 1.106579 1.185526
1.264474 1.343421 1.422368 1.501316 -0.025000 0.053947 0.132895 0.211842 0.290789
0.369737 0.448684 0.527632 0.606579 0.685526 0.764474 0.843421 0.922368 1.001316
1.080263 1.159211 1.238158 1.317105 1.396053 -0.130263 -0.051316 0.027632 0.106579
0.185526 0.264474 0.343421 0.422368 0.501316 0.580263 0.659211 0.738158 0.817105
0.896053 0.975000 1.053947 1.132895 1.211842 1.290789 -0.235526 -0.156579 -0.077632
0.001316 0.080263 0.159211 0.238158 0.317105 0.396053 0.475000 0.553947 0.632895
0.711842 0.790789 0.869737 0.948684 1.027632 1.106579 1.185526 -0.340789 -0.261842
-0.182895 -0.103947 -0.025000 0.053947 0.132895 0.211842 0.290789 0.369737 0.448684
0.527632 0.606579 0.685526 0.764474 0.843421 0.922368 1.001316 1.080263 -0.446053
-0.367105 -0.288158 -0.209211 -0.130263 -0.051316 0.027632 0.106579 0.185526 0.264474
0.343421 0.422368 0.501316 0.580263 0.659211 0.738158 0.817105 0.896053 0.975000
-0.551316 -0.472368 -0.393421 -0.314474 -0.235526 -0.156579 -0.077632 0.001316 0.080263
0.159211 0.238158 0.317105 0.396053 0.475000 0.553947 0.632895 0.711842 0.790789
0.869737 -0.656579 -0.577632 -0.498684 -0.419737 -0.340789 -0.261842 -0.182895 -0.103947
-0.025000 0.053947 0.132895 0.211842 0.290789 0.369737 0.448684 0.527632 0.606579
0.685526 0.764474 -0.761842 -0.682895 -0.603947 -0.525000 -0.446053 -0.367105 -0.288158
-0.209211 -0.130263 -0.051316 0.027632 0.106579 0.185526 0.264474 0.343421 0.422368
0.501316 0.580263 0.659211 -0.867105 -0.788158 -0.709211 -0.630263 -0.551316 -0.472368
-0.393421 -0.314474 -0.235526 -0.156579 -0.077632 0.001316 0.080263 0.159211 0.238158
0.317105 0.396053 0.475000 0.553947 -0.972368 -0.893421 -0.814474 -0.735526 -0.656579
-0.577632 -0.498684 -0.419737 -0.340789 -0.261842 -0.182895 -0.103947 -0.025000 0.053947
0.132895 0.211842 0.290789 0.369737 0.448684 -1.077632 -0.998684 -0.919737 -0.840789
-0.761842 -0.682895 -0.603947 -0.525000 -0.446053 -0.367105 -0.288158 -0.209211 -0.130263
-0.051316 0.027632 0.106579 0.185526 0.264474 0.343421 -1.182895 -1.103947 -1.025000
-0.946053 -0.867105 -0.788158 -0.709211 -0.630263 -0.551316 -0.472368 -0.393421 -0.314474
-0.235526 -0.156579 -0.077632 0.001316 0.080263 0.159211 0.238158 -1.288158 -1.209211
-1.130263 -1.051316 -0.972368 -0.893421 -0.814474 -0.735526 -0.656579 -0.577632 -0.498684
-0.419737 -0.340789 -0.261842 -0.182895 -0.103947 -0.025000 0.053947 0.132895 -1.393421
-1.314474 -1.235526 -1.156579 -1.077632 -0.998684 -0.919737 -0.840789 -0.761842 -0.682895
-0.603947 -0.525000 -0.446053 -0.367105 -0.288158 -0.209211 -0.130263 -0.051316 0.027632
-1.498684 -1.419737 -1.340789 -1.261842 -1.182895 -1.103947 -1.025000 -0.946053 -0.867105
-0.788158 -0.709211 -0.630263 -0.551316 -0.472368 -0.393421 -0.314474 -0.235526 -0.156579
-0.077632 -1.603947 -1.525000 -1.446053 -1.367105 -1.288158 -1.209211 -1.130263 -1.051316
-0.972368 -0.893421 -0.814474 -0.735526 -0.656579 -0.577632 -0.498684 -0.419737 -0.340789
-0.261842 -0.182895 -1.709211 -1.630263 -1.551316 -1.472368 -1.393421 -1.314474 -1.235526
-1.156579 -1.077632 -0.998684 -0.919737 -0.840789 -0.761842 -0.682895 -0.603947 -0.525000
-0.446053 -0.367105 -0.288158 0.225000 0.303947 0.382895 0.461842 0.540789 0.619737
0.698684 0.777632 0.856579 0.935526 1.014474 1.093421 1.172368 1.251316 1.330263
1.409211 1.488158 1.567105 1.646053 0.119737 0.198684 0.277632 0.356579 0.435526
0.514474 0.593421 0.672368 0.751316 0.830263 0.909211 0.988158 1.067105 1.146053
1.225000 1.303947 1.382895 1.461842 1.540789 0.014474 0.093421 0.172368 0.251316
0.330263 0.409211 0.488158 0.567105 0.646053 0.725000 0.803947 0.882895 0.961842
1.040789 1.119737 1.198684 1.277632 1.356579 1.435526 -0.090789 -0.011842 0.067105
0.146053 0.225000 0.303947 0.382895 0.461842 0.540789 0.619737 0.698684 0.777632
0.856579 0.935526 1.014474 1.093421 1.172368 1.251316 1.330263 -0.196053 -0.117105
-0.038158 0.040789 0.119737 0.198684 0.277632 0.356579 0.435526 0.514474 0.593421
0.672368 0.751316 0.830263 0.909211 0.988158 1.067105 1.146053 1.225000 -0.301316
-0.222368 -0.143421 -0.064474 0.014474 0.093421 0.172368 0.251316 0.330263 0.409211
0.488158 0.567105 0.646053 0.725000 0.803947 0.882895 0.961842 1.040789 1.119737
-0.406579 -0.327632 -0.248684 -0.169737 -0.090789 -0.011842 0.067105 0.146053 0.225000
0.303947 0.382895 0.461842 0.540789 0.619737 0.698684 0.777632 0.856579 0.935526
1.014474 -0.511842 -0.432895 -0.353947 -0.275000 -0.196053 -0.117105 -0.038158 0.040789
0.119737 0.198684 0.277632 0.356579 0.435526 0.514474 0.593421 0.672368 0.751316
0.830263 0.909211 -0.617105 -0.538158 -0.459211 -0.380263 -0.301316 -0.222368 -0.143421
-0.064474 0.014474 0.093421 0.172368 0.251316 0.330263 0.409211 0.488158 0.567105
0.646053 0.725000 0.803947 -0.722368 -0.643421 -0.564474 -0.485526 -0.406579 -0.327632
-0.248684 -0.169737 -0.090789 -0.011842 0.067105 0.146053 0.225000 0.303947 0.382895
0.461842 0.540789 0.619737 0.698684 -0.827632 -0.748684 -0.669737 -0.590789 -0.511842
-0.432895 -0.353947 -0.275000 -0.196053 -0.117105 -0.038158 0.040789 0.119737 0.198684
0.277632 0.356579 0.435526 0.514474 0.593421 -0.932895 -0.853947 -0.775000 -0.696053
-0.617105 -0.538158 -0.459211 -0.380263 -0.301316 -0.222368 -0.143421 -0.064474 0.014474
0.093421 0.172368 0.251316 0.330263 0.409211 0.488158 -1.038158 -0.959211 -0.880263
-0.801316 -0.722368 -0.643421 -0.564474 -0.485526 -0.406579 -0.327632 -0.248684 -0.169737
-0.090789 -0.011842 0.067105 0.146053 0.225000 0.303947 0.382895 -1.143421 -1.064474
-0.985526 -0.906579 -0.827632 -0.748684 -0.669737 -0.590789 -0.511842 -0.432895 -0.353947
-0.275000 -0.196053 -0.117105 -0.038158 0.040789 0.119737 0.198684 0.277632 -1.248684
-1.169737 -1.090789 -1.011842 -0.932895 -0.853947 -0.775000 -0.696053 -0.617105 -0.538158
-0.459211 -0.380263 -0.301316 -0.222368 -0.143421 -0.064474 0.014474 0.093421 0.172368
-1.353947 -1.275000 -1.196053 -1.117105 -1.038158 -0.959211 -0.880263 -0.801316 -0.722368
-0.643421 -0.564474 -0.485526 -0.406579 -0.327632 -0.248684 -0.169737 -0.090789 -0.011842
0.067105 -1.459211 -1.380263 -1.301316 -1.222368 -1.143421 -1.064474 -0.985526 -0.906579
-0.827632 -0.748684 -0.669737 -0.590789 -0.511842 -0.432895 -0.353947 -0.275000 -0.196053
-0.117105 -0.038158 -1.564474 -1.485526 -1.406579 -1.327632 -1.248684 -1.169737 -1.090789
-1.011842 -0.932895 -0.853947 -0.775000 -0.696053 -0.617105 -0.538158 -0.459211 -0.380263
-0.301316 -0.222368 -0.143421 -1.669737 -1.590789 -1.511842 -1.432895 -1.353947 -1.275000
-1.196053 -1.117105 -1.038158 -0.959211 -0.880263 -0.801316 -0.722368 -0.643421 -0.564474
-0.485526 -0.406579 -0.327632 -0.248684 0.264474 0.343421 0.422368 0.501316 0.580263
0.659211 0.738158 0.817105 0.896053 0.975000 1.053947 1.132895 1.211842 1.290789
1.369737 1.448684 1.527632 1.606579 1.685526 0.159211 0.238158 0.317105 0.396053
0.475000 0.553947 0.632895 0.711842 0.790789 0.869737 0.948684 1.027632 1.106579
1.185526 1.264474 1.343421 1.422368 1.501316 1.580263 0.053947 0.132895 0.211842
0.290789 0.369737 0.448684 0.527632 0.606579 0.685526 0.764474 0.843421 0.922368
1.001316 1.080263 1.159211 1.238158 1.317105 1.396053 1.475000 -0.051316 0.027632
0.106579 0.185526 0.264474 0.343421 0.422368 0.501316 0.580263 0.659211 0.738158
0.817105 0.896053 0.975000 1.053947 1.132895 1.211842 1.290789 1.369737 -0.156579
-0.077632 0.001316 0.080263 0.159211 0.238158 0.317105 0.396053 0.475000 0.553947
0.632895 0.711842 0.790789 0.869737 0.948684 1.027632 1.106579 1.185526 1.264474
-0.261842 -0.182895 -0.103947 -0.025000 0.053947 0.132895 0.211842 0.290789 0.369737
0.448684 0.527632 0.606579 0.685526 0.764474 0.843421 0.922368 1.001316 1.080263
1.159211 -0.367105 -0.288158 -0.209211 -0.130263 -0.051316 0.027632 0.106579 0.185526
0.264474 0.343421 0.422368 0.501316 0.580263 0.659211 0.738158 0.817105 0.896053
0.975000 1.053947 -0.472368 -0.393421 -0.314474 -0.235526 -0.156579 -0.077632 0.001316
0.080263 0.159211 0.238158 0.317105 0.396053 0.475000 0.553947 0.632895 0.711842
0.790789 0.869737 0.948684 -0.577632 -0.498684 -0.419737 -0.340789 -0.261842 -0.182895
-0.103947 -0.025000 0.053947 0.132895 0.211842 0.290789 0.369737 0.448684 0.527632
0.606579 0.685526 0.764474 0.843421 -0.682895 -0.603947 -0.525000 -0.446053 -0.367105
-0.288158 -0.209211 -0.130263 -0.051316 0.027632 0.106579 0.185526 0.264474 0.343421
0.422368 0.501316 0.580263 0.659211 0.738158 -0.788158 -0.709211 -0.630263 -0.551316
-0.472368 -0.393421 -0.314474 -0.235526 -0.156579 -0.077632 0.001316 0.080263 0.159211
0.238158 0.317105 0.396053 0.475000 0.553947 0.632895 -0.893421 -0.814474 -0.735526
-0.656579 -0.577632 -0.498684 -0.419737 -0.340789 -0.261842 -0.182895 -0.103947 -0.025000
0.053947 0.132895 0.211842 0.290789 0.369737 0.448684 0.527632 -0.998684 -0.919737
-0.840789 -0.761842 -0.682895 -0.603947 -0.525000 -0.446053 -0.367105 -0.288158 -0.209211
-0.130263 -0.051316 0.027632 0.106579 0.185526 0.264474 0.343421 0.422368 -1.103947
-1.025000 -0.946053 -0.867105 -0.788158 -0.709211 -0.630263 -0.551316 -0.472368 -0.393421
-0.314474 -0.235526 -0.156579 -0.077632 0.001316 0.080263 0.159211 0.238158 0.317105
-1.209211 -1.130263 -1.051316 -0.972368 -0.893421 -0.814474 -0.735526 -0.656579 -0.577632
-0.498684 -0.419737 -0.340789 -0.261842 -0.182895 -0.103947 -0.025000 0.053947 0.132895
0.211842 -1.314474 -1.235526 -1.156579 -1.077632 -0.998684 -0.919737 -0.840789 -0.761842
-0.682895 -0.603947 -0.525000 -0.446053 -0.367105 -0.288158 -0.209211 -0.130263 -0.051316
0.027632 0.106579 -1.419737 -1.340789 -1.261842 -1.182895 -1.103947 -1.025000 -0.946053
-0.867105 -0.788158 -0.709211 -0.630263 -0.551316 -0.472368 -0.393421 -0.314474 -0.235526
-0.156579 -0.077632 0.001316 -1.525000 -1.446053 -1.367105 -1.288158 -1.209211 -1.130263
-1.051316 -0.972368 -0.893421 -0.814474 -0.735526 -0.656579 -0.577632 -0.498684 -0.419737
-0.340789 -0.261842 -0.182895 -0.103947 -1.630263 -1.551316 -1.472368 -1.393421 -1.314474
-1.235526 -1.156579 -1.077632 -0.998684 -0.919737 -0.840789 -0.761842 -0.682895 -0.603947
-0.525000 -0.446053 -0.367105 -0.288158 -0.209211 0.303947 0.382895 0.461842 0.540789
0.619737 0.698684 0.777632 0.856579 0.935526 1.014474 1.093421 1.172368 1.251316
1.330263 1.409211 1.488158 1.567105 1.646053 1.725000 0.198684 0.277632 0.356579
0.435526 0.514474 0.593421 0.672368 0.751316 0.830263 0.909211 0.988158 1.067105
1.146053 1.225000 1.303947 1.382895 1.461842 1.540789 1.619737 0.093421 0.172368
0.251316 0.330263 0.409211 0.488158 0.567105 0.646053 0.725000 0.803947 0.882895
0.961842 1.040789 1.119737 1.198684 1.277632 1.356579 1.435526 1.514474 -0.011842
0.067105 0.146053 0.225000 0.303947 0.382895 0.461842 0.540789 0.619737 0.698684
0.777632 0.856579 0.935526 1.014474 1.093421 1.172368 1.251316 1.330263 1.409211
-0.117105 -0.038158 0.040789 0.119737 0.198684 0.277632 0.356579 0.435526 0.514474
0.593421 0.672368 0.751316 0.830263 0.909211 0.988158 1.067105 1.146053 1.225000
1.303947 -0.222368 -0.143421 -0.064474 0.014474 0.093421 0.172368 0.251316 0.330263
0.409211 0.488158 0.567105 0.646053 0.725000 0.803947 0.882895 0.961842 1.040789
1.119737 1.198684 -0.327632 -0.248684 -0.169737 -0.090789 -0.011842 0.067105 0.146053
0.225000 0.303947 0.382895 0.461842 0.540789 0.619737 0.698684 0.777632 0.856579
0.935526 1.014474 1.093421 -0.432895 -0.353947 -0.275000 -0.196053 -0.117105 -0.038158
0.040789 0.119737 0.198684 0.277632 0.356579 0.435526 0.514474 0.593421 0.672368
0.751316 0.830263 0.909211 0.988158 -0.538158 -0.459211 -0.380263 -0.301316 -0.222368
-0.143421 -0.064474 0.014474 0.093421 0.172368 0.251316 0.330263 0.409211 0.488158
0.567105 0.646053 0.725000 0.803947 0.882895 -0.643421 -0.564474 -0.485526 -0.406579
-0.327632 -0.248684 -0.169737 -0.090789 -0.011842 0.067105 0.146053 0.225000 0.303947
0.382895 0.461842 0.540789 0.619737 0.698684 0.777632 -0.748684 -0.669737 -0.590789
-0.511842 -0.432895 -0.353947 -0.275000 -0.196053 -0.117105 -0.038158 0.040789 0.119737
0.198684 0.277632 0.356579 0.435526 0.514474 0.593421 0.672368 -0.853947 -0.775000
-0.696053 -0.617105 -0.538158 -0.459211 -0.380263 -0.301316 -0.222368 -0.143421 -0.064474
0.014474 0.093421 0.172368 0.251316 0.330263 0.409211 0.488158 0.567105 -0.959211
-0.880263 -0.801316 -0.722368 -0.643421 -0.564474 -0.485526 -0.406579 -0.327632 -0.248684
-0.169737 -0.090789 -0.011842 0.067105 0.146053 0.225000 0.303947 0.382895 0.461842
-1.064474 -0.985526 -0.906579 -0.827632 -0.748684 -0.669737 -0.590789 -0.511842 -0.432895
-0.353947 -0.275000 -0.196053 -0.117105 -0.038158 0.040789 0.119737 0.198684 0.277632
0.356579 -1.169737 -1.090789 -1.011842 -0.932895 -0.853947 -0.775000 -0.696053 -0.617105
-0.538158 -0.459211 -0.380263 -0.301316 -0.222368 -0.143421 -0.064474 0.014474 0.093421
0.172368 0.251316 -1.275000 -1.196053 -1.117105 -1.038158 -0.959211 -0.880263 -0.801316