# vtk DataFile Version 3.0
OpenGLDP timing unstructured hexa grid
ASCII
DATASET UNSTRUCTURED_GRID
POINTS 32768 float
0.000000 0.000000 0.000000
0.032258 0.000000 0.000000
0.064516 0.000000 0.000000
0.096774 0.000000 0.000000
0.129032 0.000000 0.000000
0.161290 0.000000 0.000000
0.193548 0.000000 0.000000
0.225806 0.000000 0.000000
0.258065 0.000000 0.000000
0.290323 0.000000 0.000000
0.322581 0.000000 0.000000
0.354839 0.000000 0.000000
0.387097 0.000000 0.000000
0.419355 0.000000 0.000000
0.451613 0.000000 0.000000
0.483871 0.000000 0.000000
0.516129 0.000000 0.000000
0.548387 0.000000 0.000000
0.580645 0.000000 0.000000
0.612903 0.000000 0.000000
0.645161 0.000000 0.000000
0.677419 0.000000 0.000000
0.709677 0.000000 0.000000
0.741935 0.000000 0.000000
0.774194 0.000000 0.000000
0.806452 0.000000 0.000000
0.838710 0.000000 0.000000
0.870968 0.000000 0.000000
0.903226 0.000000 0.000000
0.935484 0.000000 0.000000
0.967742 0.000000 0.000000
1.000000 0.000000 0.000000
0.000000 0.032258 0.000000
0.032258 0.032258 0.000000
0.064516 0.032258 0.000000
0.096774 0.032258 0.000000
0.129032 0.032258 0.000000
0.161290 0.032258 0.000000
0.193548 0.032258 0.000000
0.225806 0.032258 0.000000
0.258065 0.032258 0.000000
0.290323 0.032258 0.000000
0.322581 0.032258 0.000000
0.354839 0.032258 0.000000
0.387097 0.032258 0.000000
0.419355 0.032258 0.000000
0.451613 0.032258 0.000000
0.483871 0.032258 0.000000
0.516129 0.032258 0.000000
0.548387 0.032258 0.000000
0.580645 0.032258 0.000000
0.612903 0.032258 0.000000
0.645161 0.032258 0.000000
0.677419 0.032258 0.000000
0.709677 0.032258 0.000000
0.741935 0.032258 0.000000
0.774194 0.032258 0.000000
0.806452 0.032258 0.000000
0.838710 0.032258 0.000000
0.870968 0.032258 0.000000
0.903226 0.032258 0.000000
0.935484 0.032258 0.000000
0.967742 0.032258 0.000000
1.000000 0.032258 0.000000
0.000000 0.064516 0.000000
0.032258 0.064516 0.000000
0.064516 0.064516 0.000000
0.096774 0.064516 0.000000
0.129032 0.064516 0.000000
0.161290 0.064516 0.000000
0.193548 0.064516 0.000000
0.225806 0.064516 0.000000
0.258065 0.064516 0.000000
0.290323 0.064516 0.000000
0.322581 0.064516 0.000000
0.354839 0.064516 0.000000
0.387097 0.064516 0.000000
0.419355 0.064516 0.000000
0.451613 0.064516 0.000000
0.483871 0.064516 0.000000
0.516129 0.064516 0.000000
0.548387 0.064516 0.000000
0.580645 0.064516 0.000000
0.612903 0.064516 0.000000
0.645161 0.064516 0.000000
0.677419 0.064516 0.000000
0.709677 0.064516 0.000000
0.741935 0.064516 0.000000
0.774194 0.064516 0.000000
0.806452 0.064516 0.000000
0.838710 0.064516 0.000000
0.870968 0.064516 0.000000
0.903226 0.064516 0.000000
0.935484 0.064516 0.000000
0.967742 0.064516 0.000000
1.000000 0.064516 0.000000
0.000000 0.096774 0.000000
0.032258 0.096774 0.000000
0.064516 0.096774 0.000000
0.096774 0.096774 0.000000
0.129032 0.096774 0.000000
0.161290 0.096774 0.000000
0.193548 0.096774 0.000000
0.225806 0.096774 0.000000
0.258065 0.096774 0.000000
0.290323 0.096774 0.000000
0.322581 0.096774 0.000000
0.354839 0.096774 0.000000
0.387097 0.096774 0.000000
0.419355 0.096774 0.000000
0.451613 0.096774 0.000000
0.483871 0.096774 0.000000
0.516129 0.096774 0.000000
0.548387 0.096774 0.000000
0.580645 0.096774 0.000000
0.612903 0.096774 0.000000
0.645161 0.096774 0.000000
0.677419 0.096774 0.000000
0.709677 0.096774 0.000000
0.741935 0.096774 0.000000
0.774194 0.096774 0.000000
0.806452 0.096774 0.000000
0.838710 0.096774 0.000000
0.870968 0.096774 0.000000
0.903226 0.096774 0.000000
0.935484 0.096774 0.000000
0.967742 0.096774 0.000000
1.000000 0.096774 0.000000
0.000000 0.129032 0.000000
0.032258 0.129032 0.000000
0.064516 0.129032 0.000000
0.096774 0.129032 0.000000
0.129032 0.129032 0.000000
0.161290 0.129032 0.000000
0.193548 0.129032 0.000000
0.225806 0.129032 0.000000
0.258065 0.129032 0.000000
0.290323 0.129032 0.000000
0.322581 0.129032 0.000000
0.354839 0.129032 0.000000
0.387097 0.129032 0.000000
0.419355 0.129032 0.000000
0.451613 0.129032 0.000000
0.483871 0.129032 0.000000
0.516129 0.129032 0.000000
0.548387 0.129032 0.000000
0.580645 0.129032 0.000000
0.612903 0.129032 0.000000
0.645161 0.129032 0.000000
0.677419 0.129032 0.000000
0.709677 0.129032 0.000000
0.741935 0.129032 0.000000
0.774194 0.129032 0.000000
0.806452 0.129032 0.000000
0.838710 0.129032 0.000000
0.870968 0.129032 0.000000
0.903226 0.129032 0.000000
0.935484 0.129032 0.000000
0.967742 0.129032 0.000000
1.000000 0.129032 0.000000
0.000000 0.161290 0.000000
0.032258 0.161290 0.000000
0.064516 0.161290 0.000000
0.096774 0.161290 0.000000
0.129032 0.161290 0.000000
0.161290 0.161290 0.000000
0.193548 0.161290 0.000000
0.225806 0.161290 0.000000
0.258065 0.161290 0.000000
0.290323 0.161290 0.000000
0.322581 0.161290 0.000000
0.354839 0.161290 0.000000
0.387097 0.161290 0.000000
0.419355 0.161290 0.000000
0.451613 0.161290 0.000000
0.483871 0.161290 0.000000
0.516129 0.161290 0.000000
0.548387 0.161290 0.000000
0.580645 0.161290 0.000000
0.612903 0.161290 0.000000
0.645161 0.161290 0.000000
0.677419 0.161290 0.000000
0.709677 0.161290 0.000000
0.741935 0.161290 0.000000
0.774194 0.161290 0.000000
0.806452 0.161290 0.000000
0.838710 0.161290 0.000000
0.870968 0.161290 0.000000
0.903226 0.161290 0.000000
0.935484 0.161290 0.000000
0.967742 0.161290 0.000000
1.000000 0.161290 0.000000
0.000000 0.193548 0.000000
0.032258 0.193548 0.000000
0.064516 0.193548 0.000000
0.096774 0.193548 0.000000
0.129032 0.193548 0.000000
0.161290 0.193548 0.000000
0.193548 0.193548 0.000000
0.225806 0.193548 0.000000
0.258065 0.193548 0.000000
0.290323 0.193548 0.000000
0.322581 0.193548 0.000000
0.354839 0.193548 0.000000
0.387097 0.193548 0.000000
0.419355 0.193548 0.000000
0.451613 0.193548 0.000000
0.483871 0.193548 0.000000
0.516129 0.193548 0.000000
0.548387 0.193548 0.000000
0.580645 0.193548 0.000000
0.612903 0.193548 0.000000
0.645161 0.193548 0.000000
0.677419 0.193548 0.000000
0.709677 0.193548 0.000000
0.741935 0.193548 0.000000
0.774194 0.193548 0.000000
0.806452 0.193548 0.000000
0.838710 0.193548 0.000000
0.870968 0.193548 0.000000
0.903226 0.193548 0.000000
0.935484 0.193548 0.000000
0.967742 0.193548 0.000000
1.000000 0.193548 0.000000
0.000000 0.225806 0.000000
0.032258 0.225806 0.000000
0.064516 0.225806 0.000000
0.096774 0.225806 0.000000
0.129032 0.225806 0.000000
0.161290 0.225806 0.000000
0.193548 0.225806 0.000000
0.225806 0.225806 0.000000
0.258065 0.225806 0.000000
0.290323 0.225806 0.000000
0.322581 0.225806 0.000000
0.354839 0.225806 0.000000
0.387097 0.225806 0.000000
0.419355 0.225806 0.000000
0.451613 0.225806 0.000000
0.483871 0.225806 0.000000
0.516129 0.225806 0.000000
0.548387 0.225806 0.000000
0.580645 0.225806 0.000000
0.612903 0.225806 0.000000
0.645161 0.225806 0.000000
0.677419 0.225806 0.000000
0.709677 0.225806 0.000000
0.741935 0.225806 0.000000
0.774194 0.225806 0.000000
0.806452 0.225806 0.000000
0.838710 0.225806 0.000000
0.870968 0.225806 0.000000
0.903226 0.225806 0.000000
0.935484 0.225806 0.000000
0.967742 0.225806 0.000000
1.000000 0.225806 0.000000
0.000000 0.258065 0.000000
0.032258 0.258065 0.000000
0.064516 0.258065 0.000000
0.096774 0.258065 0.000000
0.129032 0.258065 0.000000
0.161290 0.258065 0.000000
0.193548 0.258065 0.000000
0.225806 0.258065 0.000000
0.258065 0.258065 0.000000
0.290323 0.258065 0.000000
0.322581 0.258065 0.000000
0.354839 0.258065 0.000000
0.387097 0.258065 0.000000
0.419355 0.258065 0.000000
0.451613 0.258065 0.000000
0.483871 0.258065 0.000000
0.516129 0.258065 0.000000
0.548387 0.258065 0.000000
0.580645 0.258065 0.000000
0.612903 0.258065 0.000000
0.645161 0.258065 0.000000
0.677419 0.258065 0.000000
0.709677 0.258065 0.000000
0.741935 0.258065 0.000000
0.774194 0.258065 0.000000
0.806452 0.258065 0.000000
0.838710 0.258065 0.000000
0.870968 0.258065 0.000000
0.903226 0.258065 0.000000
0.935484 0.258065 0.000000
0.967742 0.258065 0.000000
1.000000 0.258065 0.000000
0.000000 0.290323 0.000000
0.032258 0.290323 0.000000
0.064516 0.290323 0.000000
0.096774 0.290323 0.000000
0.129032 0.290323 0.000000
0.161290 0.290323 0.000000
0.193548 0.290323 0.000000
0.225806 0.290323 0.000000
0.258065 0.290323 0.000000
0.290323 0.290323 0.000000
0.322581 0.290323 0.000000
0.354839 0.290323 0.000000
0.387097 0.290323 0.000000
0.419355 0.290323 0.000000
0.451613 0.290323 0.000000
0.483871 0.290323 0.000000
0.516129 0.290323 0.000000
0.548387 0.290323 0.000000
0.580645 0.290323 0.000000
0.612903 0.290323 0.000000
0.645161 0.290323 0.000000
0.677419 0.290323 0.000000
0.709677 0.290323 0.000000
0.741935 0.290323 0.000000
0.774194 0.290323 0.000000
0.806452 0.290323 0.000000
0.838710 0.290323 0.000000
0.870968 0.290323 0.000000
0.903226 0.290323 0.000000
0.935484 0.290323 0.000000
0.967742 0.290323 0.000000
1.000000 0.290323 0.000000
0.000000 0.322581 0.000000
0.032258 0.322581 0.000000
0.064516 0.322581 0.000000
0.096774 0.322581 0.000000
0.129032 0.322581 0.000000
0.161290 0.322581 0.000000
0.193548 0.322581 0.000000
0.225806 0.322581 0.000000
0.258065 0.322581 0.000000
0.290323 0.322581 0.000000
0.322581 0.322581 0.000000
0.354839 0.322581 0.000000
0.387097 0.322581 0.000000
0.419355 0.322581 0.000000
0.451613 0.322581 0.000000
0.483871 0.322581 0.000000
0.516129 0.322581 0.000000
0.548387 0.322581 0.000000
0.580645 0.322581 0.000000
0.612903 0.322581 0.000000
0.645161 0.322581 0.000000
0.677419 0.322581 0.000000
0.709677 0.322581 0.000000
0.741935 0.322581 0.000000
0.774194 0.322581 0.000000
0.806452 0.322581 0.000000
0.838710 0.322581 0.000000
0.870968 0.322581 0.000000
0.903226 0.322581 0.000000
0.935484 0.322581 0.000000
0.967742 0.322581 0.000000
1.000000 0.322581 0.000000
0.000000 0.354839 0.000000
0.032258 0.354839 0.000000
0.064516 0.354839 0.000000
0.096774 0.354839 0.000000
0.129032 0.354839 0.000000
0.161290 0.354839 0.000000
0.193548 0.354839 0.000000
0.225806 0.354839 0.000000
0.258065 0.354839 0.000000
0.290323 0.354839 0.000000
0.322581 0.354839 0.000000
0.354839 0.354839 0.000000
0.387097 0.354839 0.000000
0.419355 0.354839 0.000000
[...]
CELL_DATA 29791
SCALARS scalars float
LOOKUP_TABLE default
0.104032 0.152419 0.200806 0.249194 0.297581 0.345968 0.394355 0.442742 0.491129
0.539516 0.587903 0.636290 0.684677 0.733065 0.781452 0.829839 0.878226 0.926613
0.975000 1.023387 1.071774 1.120161 1.168548 1.216935 1.265323 1.313710 1.362097
1.410484 1.458871 1.507258 1.555645 0.039516 0.087903 0.136290 0.184677 0.233065
0.281452 0.329839 0.378226 0.426613 0.475000 0.523387 0.571774 0.620161 0.668548
0.716935 0.765323 0.813710 0.862097 0.910484 0.958871 1.007258 1.055645 1.104032
1.152419 1.200806 1.249194 1.297581 1.345968 1.394355 1.442742 1.491129 -0.025000
0.023387 0.071774 0.120161 0.168548 0.216935 0.265323 0.313710 0.362097 0.410484
0.458871 0.507258 0.555645 0.604032 0.652419 0.700806 0.749194 0.797581 0.845968
0.894355 0.942742 0.991129 1.039516 1.087903 1.136290 1.184677 1.233065 1.281452
1.329839 1.378226 1.426613 -0.089516 -0.041129 0.007258 0.055645 0.104032 0.152419
0.200806 0.249194 0.297581 0.345968 0.394355 0.442742 0.491129 0.539516 0.587903
0.636290 0.684677 0.733065 0.781452 0.829839 0.878226 0.926613 0.975000 1.023387
1.071774 1.120161 1.168548 1.216935 1.265323 1.313710 1.362097 -0.154032 -0.105645
-0.057258 -0.008871 0.039516 0.087903 0.136290 0.184677 0.233065 0.281452 0.329839
0.378226 0.426613 0.475000 0.523387 0.571774 0.620161 0.668548 0.716935 0.765323
0.813710 0.862097 0.910484 0.958871 1.007258 1.055645 1.104032 1.152419 1.200806
1.249194 1.297581 -0.218548 -0.170161 -0.121774 -0.073387 -0.025000 0.023387 0.071774
0.120161 0.168548 0.216935 0.265323 0.313710 0.362097 0.410484 0.458871 0.507258
0.555645 0.604032 0.652419 0.700806 0.749194 0.797581 0.845968 0.894355 0.942742
0.991129 1.039516 1.087903 1.136290 1.184677 1.233065 -0.283065 -0.234677 -0.186290
-0.137903 -0.089516 -0.041129 0.007258 0.055645 0.104032 0.152419 0.200806 0.249194
0.297581 0.345968 0.394355 0.442742 0.491129 0.539516 0.587903 0.636290 0.684677
0.733065 0.781452 0.829839 0.878226 0.926613 0.975000 1.023387 1.071774 1.120161
1.168548 -0.347581 -0.299194 -0.250806 -0.202419 -0.154032 -0.105645 -0.057258 -0.008871
0.039516 0.087903 0.136290 0.184677 0.233065 0.281452 0.329839 0.378226 0.426613
0.475000 0.523387 0.571774 0.620161 0.668548 0.716935 0.765323 0.813710 0.862097
0.910484 0.958871 1.007258 1.055645 1.104032 -0.412097 -0.363710 -0.315323 -0.266935
-0.218548 -0.170161 -0.121774 -0.073387 -0.025000 0.023387 0.071774 0.120161 0.168548
0.216935 0.265323 0.313710 0.362097 0.410484 0.458871 0.507258 0.555645 0.604032
0.652419 0.700806 0.749194 0.797581 0.845968 0.894355 0.942742 0.991129 1.039516
-0.476613 -0.428226 -0.379839 -0.331452 -0.283065 -0.234677 -0.186290 -0.137903 -0.089516
-0.041129 0.007258 0.055645 0.104032 0.152419 0.200806 0.249194 0.297581 0.345968
0.394355 0.442742 0.491129 0.539516 0.587903 0.636290 0.684677 0.733065 0.781452
0.829839 0.878226 0.926613 0.975000 -0.541129 -0.492742 -0.444355 -0.395968 -0.347581
-0.299194 -0.250806 -0.202419 -0.154032 -0.105645 -0.057258 -0.008871 0.039516 0.087903
0.136290 0.184677 0.233065 0.281452 0.329839 0.378226 0.426613 0.475000 0.523387
0.571774 0.620161 0.668548 0.716935 0.765323 0.813710 0.862097 0.910484 -0.605645
-0.557258 -0.508871 -0.460484 -0.412097 -0.363710 -0.315323 -0.266935 -0.218548 -0.170161
-0.121774 -0.073387 -0.025000 0.023387 0.071774 0.120161 0.168548 0.216935 0.265323
0.313710 0.362097 0.410484 0.458871 0.507258 0.555645 0.604032 0.652419 0.700806
0.749194 0.797581 0.845968 -0.670161 -0.621774 -0.573387 -0.525000 -0.476613 -0.428226
-0.379839 -0.331452 -0.283065 -0.234677 -0.186290 -0.137903 -0.089516 -0.041129 0.007258
0.055645 0.104032 0.152419 0.200806 0.249194 0.297581 0.345968 0.394355 0.442742
0.491129 0.539516 0.587903 0.636290 0.684677 0.733065 0.781452 -0.734677 -0.686290
-0.637903 -0.589516 -0.541129 -0.492742 -0.444355 -0.395968 -0.347581 -0.299194 -0.250806
-0.202419 -0.154032 -0.105645 -0.057258 -0.008871 0.039516 0.087903 0.136290 0.184677
0.233065 0.281452 0.329839 0.378226 0.426613 0.475000 0.523387 0.571774 0.620161
0.668548 0.716935 -0.799194 -0.750806 -0.702419 -0.654032 -0.605645 -0.557258 -0.508871
-0.460484 -0.412097 -0.363710 -0.315323 -0.266935 -0.218548 -0.170161 -0.121774 -0.073387
-0.025000 0.023387 0.071774 0.120161 0.168548 0.216935 0.265323 0.313710 0.362097
0.410484 0.458871 0.507258 0.555645 0.604032 0.652419 -0.863710 -0.815323 -0.766935
-0.718548 -0.670161 -0.621774 -0.573387 -0.525000 -0.476613 -0.428226 -0.379839 -0.331452
-0.283065 -0.234677 -0.186290 -0.137903 -0.089516 -0.041129 0.007258 0.055645 0.104032
0.152419 0.200806 0.249194 0.297581 0.345968 0.394355 0.442742 0.491129 0.539516
0.587903 -0.928226 -0.879839 -0.831452 -0.783065 -0.734677 -0.686290 -0.637903 -0.589516
-0.541129 -0.492742 -0.444355 -0.395968 -0.347581 -0.299194 -0.250806 -0.202419 -0.154032
-0.105645 -0.057258 -0.008871 0.039516 0.087903 0.136290 0.184677 0.233065 0.281452
0.329839 0.378226 0.426613 0.475000 0.523387 -0.992742 -0.944355 -0.895968 -0.847581
-0.799194 -0.750806 -0.702419 -0.654032 -0.605645 -0.557258 -0.508871 -0.460484 -0.412097
-0.363710 -0.315323 -0.266935 -0.218548 -0.170161 -0.121774 -0.073387 -0.025000 0.023387
0.071774 0.120161 0.168548 0.216935 0.265323 0.313710 0.362097 0.410484 0.458871
-1.057258 -1.008871 -0.960484 -0.912097 -0.863710 -0.815323 -0.766935 -0.718548 -0.670161
-0.621774 -0.573387 -0.525000 -0.476613 -0.428226 -0.379839 -0.331452 -0.283065 -0.234677
-0.186290 -0.137903 -0.089516 -0.041129 0.007258 0.055645 0.104032 0.152419 0.200806
0.249194 0.297581 0.345968 0.394355 -1.121774 -1.073387 -1.025000 -0.976613 -0.928226
-0.879839 -0.831452 -0.783065 -0.734677 -0.686290 -0.637903 -0.589516 -0.541129 -0.492742
-0.444355 -0.395968 -0.347581 -0.299194 -0.250806 -0.202419 -0.154032 -0.105645 -0.057258
-0.008871 0.039516 0.087903 0.136290 0.184677 0.233065 0.281452 0.329839 -1.186290
-1.137903 -1.089516 -1.041129 -0.992742 -0.944355 -0.895968 -0.847581 -0.799194 -0.750806
-0.702419 -0.654032 -0.605645 -0.557258 -0.508871 -0.460484 -0.412097 -0.363710 -0.315323
-0.266935 -0.218548 -0.170161 -0.121774 -0.073387 -0.025000 0.023387 0.071774 0.120161
0.168548 0.216935 0.265323 -1.250806 -1.202419 -1.154032 -1.105645 -1.057258 -1.008871
-0.960484 -0.912097 -0.863710 -0.815323 -0.766935 -0.718548 -0.670161 -0.621774 -0.573387
-0.525000 -0.476613 -0.428226 -0.379839 -0.331452 -0.283065 -0.234677 -0.186290 -0.137903
-0.089516 -0.041129 0.007258 0.055645 0.104032 0.152419 0.200806 -1.315323 -1.266935
-1.218548 -1.170161 -1.121774 -1.073387 -1.025000 -0.976613 -0.928226 -0.879839 -0.831452
-0.783065 -0.734677 -0.686290 -0.637903 -0.589516 -0.541129 -0.492742 -0.444355 -0.395968
-0.347581 -0.299194 -0.250806 -0.202419 -0.154032 -0.105645 -0.057258 -0.008871 0.039516
0.087903 0.136290 -1.379839 -1.331452 -1.283065 -1.234677 -1.186290 -1.137903 -1.089516
-1.041129 -0.992742 -0.944355 -0.895968 -0.847581 -0.799194 -0.750806 -0.702419 -0.654032
-0.605645 -0.557258 -0.508871 -0.460484 -0.412097 -0.363710 -0.315323 -0.266935 -0.218548
-0.170161 -0.121774 -0.073387 -0.025000 0.023387 0.071774 -1.444355 -1.395968 -1.347581
-1.299194 -1.250806 -1.202419 -1.154032 -1.105645 -1.057258 -1.008871 -0.960484 -0.912097
-0.863710 -0.815323 -0.766935 -0.718548 -0.670161 -0.621774 -0.573387 -0.525000 -0.476613
-0.428226 -0.379839 -0.331452 -0.283065 -0.234677 -0.186290 -0.137903 -0.089516 -0.041129
0.007258 -1.508871 -1.460484 -1.412097 -1.363710 -1.315323 -1.266935 -1.218548 -1.170161
-1.121774 -1.073387 -1.025000 -0.976613 -0.928226 -0.879839 -0.831452 -0.783065 -0.734677
-0.686290 -0.637903 -0.589516 -0.541129 -0.492742 -0.444355 -0.395968 -0.347581 -0.299194
-0.250806 -0.202419 -0.154032 -0.105645 -0.057258 -1.573387 -1.525000 -1.476613 -1.428226
-1.379839 -1.331452 -1.283065 -1.234677 -1.186290 -1.137903 -1.089516 -1.041129 -0.992742
-0.944355 -0.895968 -0.847581 -0.799194 -0.750806 -0.702419 -0.654032 -0.605645 -0.557258
-0.508871 -0.460484 -0.412097 -0.363710 -0.315323 -0.266935 -0.218548 -0.170161 -0.121774
-1.637903 -1.589516 -1.541129 -1.492742 -1.444355 -1.395968 -1.347581 -1.299194 -1.250806
-1.202419 -1.154032 -1.105645 -1.057258 -1.008871 -0.960484 -0.912097 -0.863710 -0.815323
-0.766935 -0.718548 -0.670161 -0.621774 -0.573387 -0.525000 -0.476613 -0.428226 -0.379839
-0.331452 -0.283065 -0.234677 -0.186290 -1.702419 -1.654032 -1.605645 -1.557258 -1.508871
-1.460484 -1.412097 -1.363710 -1.315323 -1.266935 -1.218548 -1.170161 -1.121774 -1.073387
-1.025000 -0.976613 -0.928226 -0.879839 -0.831452 -0.783065 -0.734677 -0.686290 -0.637903
-0.589516 -0.541129 -0.492742 -0.444355 -0.395968 -0.347581 -0.299194 -0.250806 -1.766935
-1.718548 -1.670161 -1.621774 -1.573387 -1.525000 -1.476613 -1.428226 -1.379839 -1.331452
-1.283065 -1.234677 -1.186290 -1.137903 -1.089516 -1.041129 -0.992742 -0.944355 -0.895968
-0.847581 -0.799194 -0.750806 -0.702419 -0.654032 -0.605645 -0.557258 -0.508871 -0.460484
-0.412097 -0.363710 -0.315323 -1.831452 -1.783065 -1.734677 -1.686290 -1.637903 -1.589516
-1.541129 -1.492742 -1.444355 -1.395968 -1.347581 -1.299194 -1.250806 -1.202419 -1.154032
-1.105645 -1.057258 -1.008871 -0.960484 -0.912097 -0.863710 -0.815323 -0.766935 -0.718548
-0.670161 -0.621774 -0.573387 -0.525000 -0.476613 -0.428226 -0.379839 0.128226 0.176613
0.225000 0.273387 0.321774 0.370161 0.418548 0.466935 0.515323 0.563710 0.612097
0.660484 0.708871 0.757258 0.805645 0.854032 0.902419 0.950806 0.999194 1.047581
1.095968 1.144355 1.192742 1.241129 1.289516 1.337903 1.386290 1.434677 1.483065
1.531452 1.579839 0.063710 0.112097 0.160484 0.208871 0.257258 0.305645 0.354032
0.402419 0.450806 0.499194 0.547581 0.595968 0.644355 0.692742 0.741129 0.789516
0.837903 0.886290 0.934677 0.983065 1.031452 1.079839 1.128226 1.176613 1.225000
1.273387 1.321774 1.370161 1.418548 1.466935 1.515323 -0.000806 0.047581 0.095968
0.144355 0.192742 0.241129 0.289516 0.337903 0.386290 0.434677 0.483065 0.531452
0.579839 0.628226 0.676613 0.725000 0.773387 0.821774 0.870161 0.918548 0.966935
1.015323 1.063710 1.112097 1.160484 1.208871 1.257258 1.305645 1.354032 1.402419
1.450806 -0.065323 -0.016935 0.031452 0.079839 0.128226 0.176613 0.225000 0.273387
0.321774 0.370161 0.418548 0.466935 0.515323 0.563710 0.612097 0.660484 0.708871
0.757258 0.805645 0.854032 0.902419 0.950806 0.999194 1.047581 1.095968 1.144355
1.192742 1.241129 1.289516 1.337903 1.386290 -0.129839 -0.081452 -0.033065 0.015323
0.063710 0.112097 0.160484 0.208871 0.257258 0.305645 0.354032 0.402419 0.450806
0.499194 0.547581 0.595968 0.644355 0.692742 0.741129 0.789516 0.837903 0.886290
0.934677 0.983065 1.031452 1.079839 1.128226 1.176613 1.225000 1.273387 1.321774
-0.194355 -0.145968 -0.097581 -0.049194 -0.000806 0.047581 0.095968 0.144355 0.192742
0.241129 0.289516 0.337903 0.386290 0.434677 0.483065 0.531452 0.579839 0.628226
0.676613 0.725000 0.773387 0.821774 0.870161 0.918548 0.966935 1.015323 1.063710
1.112097 1.160484 1.208871 1.257258 -0.258871 -0.210484 -0.162097 -0.113710 -0.065323
-0.016935 0.031452 0.079839 0.128226 0.176613 0.225000 0.273387 0.321774 0.370161
0.418548 0.466935 0.515323 0.563710 0.612097 0.660484 0.708871 0.757258 0.805645
0.854032 0.902419 0.950806 0.999194 1.047581 1.095968 1.144355 1.192742 -0.323387
-0.275000 -0.226613 -0.178226 -0.129839 -0.081452 -0.033065 0.015323 0.063710 0.112097
0.160484 0.208871 0.257258 0.305645 0.354032 0.402419 0.450806 0.499194 0.547581
0.595968 0.644355 0.692742 0.741129 0.789516 0.837903 0.886290 0.934677 0.983065
1.031452 1.079839 1.128226 -0.387903 -0.339516 -0.291129 -0.242742 -0.194355 -0.145968
-0.097581 -0.049194 -0.000806 0.047581 0.095968 0.144355 0.192742 0.241129 0.289516
0.337903 0.386290 0.434677 0.483065 0.531452 0.579839 0.628226 0.676613 0.725000
0.773387 0.821774 0.870161 0.918548 0.966935 1.015323 1.063710 -0.452419 -0.404032
-0.355645 -0.307258 -0.258871 -0.210484 -0.162097 -0.113710 -0.065323 -0.016935 0.031452
0.079839 0.128226 0.176613 0.225000 0.273387 0.321774 0.370161 0.418548 0.466935
0.515323 0.563710 0.612097 0.660484 0.708871 0.757258 0.805645 0.854032 0.902419
0.950806 0.999194 -0.516935 -0.468548 -0.420161 -0.371774 -0.323387 -0.275000 -0.226613
-0.178226 -0.129839 -0.081452 -0.033065 0.015323 0.063710 0.112097 0.160484 0.208871
0.257258 0.305645 0.354032 0.402419 0.450806 0.499194 0.547581 0.595968 0.644355
0.692742 0.741129 0.789516 0.837903 0.886290 0.934677 -0.581452 -0.533065 -0.484677
-0.436290 -0.387903 -0.339516 -0.291129 -0.242742 -0.194355 -0.145968 -0.097581 -0.049194
-0.000806 0.047581 0.095968 0.144355 0.192742 0.241129 0.289516 0.337903 0.386290
0.434677 0.483065 0.531452 0.579839 0.628226 0.676613 0.725000 0.773387 0.821774
0.870161 -0.645968 -0.597581 -0.549194 -0.500806 -0.452419 -0.404032 -0.355645 -0.307258
-0.258871 -0.210484 -0.162097 -0.113710 -0.065323 -0.016935 0.031452 0.079839 0.128226
0.176613 0.225000 0.273387 0.321774 0.370161 0.418548 0.466935 0.515323 0.563710
0.612097 0.660484 0.708871 0.757258 0.805645 -0.710484 -0.662097 -0.613710 -0.565323
-0.516935 -0.468548 -0.420161 -0.371774 -0.323387 -0.275000 -0.226613 -0.178226 -0.129839
-0.081452 -0.033065 0.015323 0.063710 0.112097 0.160484 0.208871 0.257258 0.305645
0.354032 0.402419 0.450806 0.499194 0.547581 0.595968 0.644355 0.692742 0.741129
-0.775000 -0.726613 -0.678226 -0.629839 -0.581452 -0.533065 -0.484677 -0.436290 -0.387903
-0.339516 -0.291129 -0.242742 -0.194355 -0.145968 -0.097581 -0.049194 -0.000806 0.047581
0.095968 0.144355 0.192742 0.241129 0.289516 0.337903 0.386290 0.434677 0.483065
0.531452 0.579839 0.628226 0.676613 -0.839516 -0.791129 -0.742742 -0.694355 -0.645968
-0.597581 -0.549194 -0.500806 -0.452419 -0.404032 -0.355645 -0.307258 -0.258871 -0.210484
-0.162097 -0.113710 -0.065323 -0.016935 0.031452 0.079839 0.128226 0.176613 0.225000
0.273387 0.321774 0.370161 0.418548 0.466935 0.515323 0.563710 0.612097 -0.904032
-0.855645 -0.807258 -0.758871 -0.710484 -0.662097 -0.613710 -0.565323 -0.516935 -0.468548
-0.420161 -0.371774 -0.323387 -0.275000 -0.226613 -0.178226 -0.129839 -0.081452 -0.033065
0.015323 0.063710 0.112097 0.160484 0.208871 0.257258 0.305645 0.354032 0.402419
0.450806 0.499194 0.547581 -0.968548 -0.920161 -0.871774 -0.823387 -0.775000 -0.726613
-0.678226 -0.629839 -0.581452 -0.533065 -0.484677 -0.436290 -0.387903 -0.339516 -0.291129
-0.242742 -0.194355 -0.145968 -0.097581 -0.049194 -0.000806 0.047581 0.095968 0.144355
0.192742 0.241129 0.289516 0.337903 0.386290 0.434677 0.483065 -1.033065 -0.984677
-0.936290 -0.887903 -0.839516 -0.791129 -0.742742 -0.694355 -0.645968 -0.597581 -0.549194
-0.500806 -0.452419 -0.404032 -0.355645 -0.307258 -0.258871 -0.210484 -0.162097 -0.113710
-0.065323 -0.016935 0.031452 0.079839 0.128226 0.176613 0.225000 0.273387 0.321774
0.370161 0.418548 -1.097581 -1.049194 -1.000806 -0.952419 -0.904032 -0.855645 -0.807258
-0.758871 -0.710484 -0.662097 -0.613710 -0.565323 -0.516935 -0.468548 -0.420161 -0.371774
-0.323387 -0.275000 -0.226613 -0.178226 -0.129839 -0.081452 -0.033065 0.015323 0.063710
0.112097 0.160484 0.208871 0.257258 0.305645 0.354032 -1.162097 -1.113710 -1.065323
-1.016935 -0.968548 -0.920161 -0.871774 -0.823387 -0.775000 -0.726613 -0.678226 -0.629839
-0.581452 -0.533065 -0.484677 -0.436290 -0.387903 -0.339516 -0.291129 -0.242742 -0.194355
-0.145968 -0.097581 -0.049194 -0.000806 0.047581 0.095968 0.144355 0.192742 0.241129
0.289516 -1.226613 -1.178226 -1.129839 -1.081452 -1.033065 -0.984677 -0.936290 -0.887903
-0.839516 -0.791129 -0.742742 -0.694355 -0.645968 -0.597581 -0.549194 -0.500806 -0.452419
-0.404032 -0.355645 -0.307258 -0.258871 -0.210484 -0.162097 -0.113710 -0.065323 -0.016935
0.031452 0.079839 0.128226 0.176613 0.225000 -1.291129 -1.242742 -1.194355 -1.145968
-1.097581 -1.049194 -1.000806 -0.952419 -0.904032 -0.855645 -0.807258 -0.758871 -0.710484
-0.662097 -0.613710 -0.565323 -0.516935 -0.468548 -0.420161 -0.371774 -0.323387 -0.275000
-0.226613 -0.178226 -0.129839 -0.081452 -0.033065 0.015323 0.063710 0.112097 0.160484
-1.355645 -1.307258 -1.258871 -1.210484 -1.162097 -1.113710 -1.065323 -1.016935 -0.968548
-0.920161 -0.871774 -0.823387 -0.775000 -0.726613 -0.678226 -0.629839 -0.581452 -0.533065
-0.484677 -0.436290 -0.387903 -0.339516 -0.291129 -0.242742 -0.194355 -0.145968 -0.097581
-0.049194 -0.000806 0.047581 0.095968 -1.420161 -1.371774 -1.323387 -1.275000 -1.226613
-1.178226 -1.129839 -1.081452 -1.033065 -0.984677 -0.936290 -0.887903 -0.839516 -0.791129
-0.742742 -0.694355 -0.645968 -0.597581 -0.549194 -0.500806 -0.452419 -0.404032 -0.355645
-0.307258 -0.258871 -0.210484 -0.162097 -0.113710 -0.065323 -0.016935 0.031452 -1.484677
-1.436290 -1.387903 -1.339516 -1.291129 -1.242742 -1.194355 -1.145968 -1.097581 -1.049194
-1.000806 -0.952419 -0.904032 -0.855645 -0.807258 -0.758871 -0.710484 -0.662097 -0.613710
-0.565323 -0.516935 -0.468548 -0.420161 -0.371774 -0.323387 -0.275000 -0.226613 -0.178226
-0.129839 -0.081452 -0.033065 -1.549194 -1.500806 -1.452419 -1.404032 -1.355645 -1.307258
-1.258871 -1.210484 -1.162097 -1.113710 -1.065323 -1.016935 -0.968548 -0.920161 -0.871774
-0.823387 -0.775000 -0.726613 -0.678226 -0.629839 -0.581452 -0.533065 -0.484677 -0.436290
-0.387903 -0.339516 -0.291129 -0.242742 -0.194355 -0.145968 -0.097581 -1.613710 -1.565323
-1.516935 -1.468548 -1.420161 -1.371774 -1.323387 -1.275000 -1.226613 -1.178226 -1.129839
-1.081452 -1.033065 -0.984677 -0.936290 -0.887903 -0.839516 -0.791129 -0.742742 -0.694355
-0.645968 -0.597581 -0.549194 -0.500806 -0.452419 -0.404032 -0.355645 -0.307258 -0.258871
-0.210484 -0.162097 -1.678226 -1.629839 -1.581452 -1.533065 -1.484677 -1.436290 -1.387903
-1.339516 -1.291129 -1.242742 -1.194355 -1.145968 -1.097581 -1.049194 -1.000806 -0.952419
-0.904032 -0.855645 -0.807258 -0.758871 -0.710484 -0.662097 -0.613710 -0.565323 -0.516935
-0.468548 -0.420161 -0.371774 -0.323387 -0.275000 -0.226613 -1.742742 -1.694355 -1.645968
-1.597581 -1.549194 -1.500806 -1.452419 -1.404032 -1.355645 -1.307258 -1.258871 -1.210484
-1.162097 -1.113710 -1.065323 -1.016935 -0.968548 -0.920161 -0.871774 -0.823387 -0.775000
-0.726613 -0.678226 -0.629839 -0.581452 -0.533065 -0.484677 -0.436290 -0.387903 -0.339516
-0.291129 -1.807258 -1.758871 -1.710484 -1.662097 -1.613710 -1.565323 -1.516935 -1.468548
-1.420161 -1.371774 -1.323387 -1.275000 -1.226613 -1.178226 -1.129839 -1.081452 -1.033065
-0.984677 -0.936290 -0.887903 -0.839516 -0.791129 -0.742742 -0.694355 -0.645968 -0.597581
-0.549194 -0.500806 -0.452419 -0.404032 -0.355645 0.152419 0.200806 0.249194 0.297581
0.345968 0.394355 0.442742 0.491129 0.539516 0.587903 0.636290 0.684677 0.733065
0.781452 0.829839 0.878226 0.926613 0.975000 1.023387 1.071774 1.120161 1.168548
1.216935 1.265323 1.313710 1.362097 1.410484 1.458871 1.507258 1.555645 1.604032
0.087903 0.136290 0.184677 0.233065 0.281452 0.329839 0.378226 0.426613 0.475000
0.523387 0.571774 0.620161 0.668548 0.716935 0.765323 0.813710 0.862097 0.910484
0.958871 1.007258 1.055645 1.104032 1.152419 1.200806 1.249194 1.297581 1.345968
1.394355 1.442742 1.491129 1.539516 0.023387 0.071774 0.120161 0.168548 0.216935
0.265323 0.313710 0.362097 0.410484 0.458871 0.507258 0.555645 0.604032 0.652419
0.700806 0.749194 0.797581 0.845968 0.894355 0.942742 0.991129 1.039516 1.087903
1.136290 1.184677 1.233065 1.281452 1.329839 1.378226 1.426613 1.475000 -0.041129
0.007258 0.055645 0.104032 0.152419 0.200806 0.249194 0.297581 0.345968 0.394355
0.442742 0.491129 0.539516 0.587903 0.636290 0.684677 0.733065 0.781452 0.829839
0.878226 0.926613 0.975000 1.023387 1.071774 1.120161 1.168548 1.216935 1.265323
1.313710 1.362097 1.410484 -0.105645 -0.057258 -0.008871 0.039516 0.087903 0.136290
0.184677 0.233065 0.281452 0.329839 0.378226 0.426613 0.475000 0.523387 0.571774
0.620161 0.668548 0.716935 0.765323 0.813710 0.862097 0.910484 0.958871 1.007258
1.055645 1.104032 1.152419 1.200806 1.249194 1.297581 1.345968 -0.170161 -0.121774
-0.073387 -0.025000 0.023387 0.071774 0.120161 0.168548 0.216935 0.265323 0.313710