# vtk DataFile Version 3.0
SAMModel Output
ASCII
DATASET UNSTRUCTURED_GRID
POINTS 642 float
0 0 0 10 0 0 10 5 0 0 5 0 0.5 0 0 1 0 0 1.5 0 0 2 0 0 2.5 0 0 
3 0 0 3.5 0 0 4 0 0 4.5 0 0 5 0 0 5.5 0 0 6 0 0 6.5 0 0 7 0 0 
7.5 0 0 8 0 0 8.5 0 0 9 0 0 9.5 0 0 10 0.5 0 10 1 0 10 1.5 0 10 2 0 
10 2.5 0 10 3 0 10 3.5 0 10 4 0 10 4.5 0 9.5 5 0 9 5 0 8.5 5 0 8 5 0 
7.5 5 0 7 5 0 6.5 5 0 6 5 0 5.5 5 0 5 5 0 4.5 5 0 4 5 0 3.5 5 0 
3 5 0 2.5 5 0 2 5 0 1.5 5 0 1 5 0 0.5 5 0 0 4.5 0 0 4 0 0 3.5 0 
0 3 0 0 2.5 0 0 2 0 0 1.5 0 0 1 0 0 0.5 0 5.1999998 2.5 0 5.196157 2.5390182 0 5.1847758 2.5765367 0 
5.1662941 2.611114 0 5.1414213 2.6414213 0 5.111114 2.6662939 0 5.0765367 2.6847758 0 5.0390182 2.696157 0 5 2.7 0 4.9609818 2.696157 0 4.9234633 2.6847758 0 4.888886 2.6662939 0 
4.8585787 2.6414213 0 4.8337059 2.611114 0 4.8152242 2.5765367 0 4.803843 2.5390182 0 4.8000002 2.5 0 4.803843 2.4609818 0 4.8152242 2.4234633 0 4.8337059 2.388886 0 4.8585787 2.3585787 0 
4.888886 2.3337061 0 4.9234633 2.3152242 0 4.9609818 2.303843 0 5 2.3 0 5.0390182 2.303843 0 5.0765367 2.3152242 0 5.111114 2.3337061 0 5.1414213 2.3585787 0 5.1662941 2.388886 0 
5.1847758 2.4234633 0 5.196157 2.4609818 0 1 1 0 1 4 0 2 4 0 8 4 0 9 4 0 8.9906855 1.0403781 0 7.8236361 1.2681217 0 
2.0111046 1.0536512 0 9.0429544 2.9599922 0 9.0429544 2.0400078 0 0.95704567 2.9599922 0 0.95704567 2.0400078 0 5.0100074 2.2034421 0 5.0009933 2.7860096 0 4.8895373 2.7625723 0 5.1130996 2.7631423 0 
4.8917685 2.2371614 0 5.1092525 2.2223279 0 5.2004457 2.7011931 0 4.7991853 2.2958858 0 4.7970581 2.7054365 0 5.1973662 2.2943954 0 5.2565684 2.3939312 0 5.2562699 2.6058013 0 4.7429585 2.3938382 0 
4.7431612 2.6062646 0 4.723093 2.5 0 5.276907 2.5 0 5.9964771 4.1807828 0 4.0427108 4.0556307 0 5.8069448 0.97437149 0 4.0203466 1.0483381 0 4.9052935 0.83526838 0 4.9806561 4.1823692 0 
3.8886893 3.4208357 0 3.2876246 3.4083114 0 6.6844292 3.4185066 0 6.0559297 1.586244 0 6.6780534 1.5179915 0 4.7108078 2.2118938 0 4.7125716 2.7921331 0 5.2904587 2.7826872 0 5.2827301 2.2083654 0 
5.3518968 2.6453826 0 4.6486335 2.3541667 0 4.6490593 2.6437216 0 5.3509407 2.3562784 0 5 2.8950553 0 5.0154119 2.057611 0 1.8884643 3.0612817 0 2.0385208 2.0474401 0 8.1135855 3.0705113 0 
7.9564819 2.1296794 0 5.3750095 2.5000126 0 4.6238151 2.5 0 4.8459048 2.1314578 0 4.8404531 2.8691604 0 5.1636209 2.8695943 0 5.1601171 2.0871706 0 5.3232479 3.6444767 0 4.7505507 3.6661224 0 
4.8705153 1.4337435 0 3.8855107 2.9621112 0 3.3775764 2.9442518 0 6.6337342 2.9782226 0 6.0745077 3.1063395 0 6.0534201 2.0326068 0 6.4829445 2.0357826 0 3.3762422 1.7783377 0 3.9014299 1.7151328 0 
5.5040903 2.5 0 4.4853506 2.5097961 0 5.4895124 2.7009284 0 4.5181322 2.3024549 0 4.5086551 2.7168138 0 5.4822779 2.2905762 0 5 3.0442963 0 5.0047407 1.8101403 0 5.2341475 3.0208538 0 
4.7745457 3.0283737 0 4.78584 1.9839113 0 5.2392526 1.8593975 0 7.3084631 1.7413867 0 7.3240323 3.236665 0 2.683032 3.2422838 0 2.6969986 1.7920568 0 4.399724 1.4286003 0 4.3924742 3.6520879 0 
3.925658 2.5925546 0 6.0662541 2.7512856 0 5.9792705 2.3981779 0 3.9862332 2.2271807 0 4.3578353 1.8414048 0 5.6739097 3.1195502 0 4.3453927 3.2065136 0 5.6301918 1.8328079 0 3.6563089 2.2377923 0 
6.3084221 2.3730266 0 5.7167907 2.4708984 0 4.2397375 2.5447087 0 5.706717 2.1613929 0 5.7398391 2.7634363 0 4.2809539 2.2087917 0 4.2546053 2.8534467 0 4.9886918 3.2374485 0 5.3141952 3.2558424 0 
4.696105 3.2839177 0 4.6812949 1.7581915 0 2.7420008 2.593863 0 7.2150469 2.6517081 0 4.588799 2.0827942 0 4.5874453 2.937382 0 5.4270439 2.9062219 0 5.4099765 2.0639818 0 6.4880857 2.6473675 0 
6.8498497 2.2876241 0 3.0897157 2.2182794 0 3.5105662 2.5496187 0 5.3912377 1.5076962 0 5 3.5019519 0 2.9389415 1.1046064 0 6.8331399 0.88052064 0 2.9779556 3.9586978 0 7.047874 3.9615924 0 
5.9248614 3.5152278 0 5.1582084 2.7339041 0 5.1371369 2.8131971 0 5.2306933 2.8300819 0 5.2416053 2.7393966 0 9.5 4 0 9 4.5 0 6.9174509 0.473093 0 7.3592567 0.97900432 0 
7.9274578 0.61191797 0 3.9068699 1.4113754 0 4.1441126 1.7769408 0 4.3573041 1.6443621 0 4.2451072 1.2635796 0 2.9754291 4.4498186 0 2.4974961 3.9948199 0 2 4.4761405 0 4.67734 2.5 0 
4.6324849 2.5736394 0 4.6983261 2.6241112 0 4.7302542 2.5527768 0 4.8302855 2.6708615 0 4.8427453 2.7346988 0 4.9079943 2.7204783 0 7.0053625 3.2988925 0 7.310936 2.9335601 0 6.9195867 2.8142729 0 
6.6596899 3.1916976 0 5.2673826 2.5509179 0 5.3017898 2.6240332 0 5.3664927 2.5727603 0 5.3221574 2.500006 0 4.9290652 2.0943727 0 5.0127201 1.9457775 0 4.8878446 1.8924787 0 4.8184195 2.063941 0 
5.2356606 2.4999852 0 5.2174444 2.5900497 0 6.5200195 4.0997601 0 5.9973941 4.5518045 0 7.0470004 4.4421468 0 5.230978 2.6560066 0 5.1681643 2.6689491 0 0.5 1 0 1 0.5 0 
0.50128341 2.9790447 0 0.95704567 2.5 0 0.50128341 2.0209553 0 1 4.5 0 0.5 4 0 0.97750133 3.4552627 0 5.4786754 4.2015224 0 4.9893723 4.5507889 0 8.476141 4 0 
9.0224991 3.4552627 0 8.5756006 3.0032229 0 8.0827322 3.5699134 0 9.4987164 2.0209553 0 9.0429544 2.5 0 9.4987164 2.9790447 0 8.9825535 0.53067905 0 9.5 1 0 9.0224991 1.5447375 0 
8.4417076 1.1469132 0 8.0067406 1.6770343 0 8.4906693 2.0838904 0 4.8311806 2.3296583 0 4.7689815 2.3430076 0 4.7821012 2.4098847 0 4.5848255 2.679209 0 4.5613217 2.5043333 0 4.4938159 2.6105275 0 
4.730546 2.447439 0 4.6982183 2.375942 0 4.6363235 2.4287868 0 1.5023856 2.0437555 0 2.0282736 1.5530989 0 1.5331632 1.0263642 0 0.97750133 1.5447375 0 1.4181064 2.9982276 0 1.9594486 2.5378051 0 
2.9514768 0.59067744 0 3.4891496 1.0094638 0 3.9963329 0.56846482 0 4.5055714 4.144124 0 4.0205913 4.5058985 0 5.0932984 2.7208145 0 4.7821927 2.590163 0 4.7632041 2.5 0 5.8946729 0.53017706 0 
4.9390483 0.45076948 0 5.3628659 0.87751585 0 5.3015237 2.3759947 0 5.2695904 2.4472954 0 5.3630934 2.4288504 0 5.3181577 2.2851889 0 5.2334967 2.2533846 0 5.2298589 2.3420076 0 5.1670842 2.3283663 0 
5.156251 2.2538998 0 5.090992 2.2719779 0 4.4471393 0.89437127 0 8 4.4761405 0 6.3152089 0.89538765 0 7.7104816 3.1811342 0 7.2819753 3.6101744 0 7.5250754 3.986414 0 5.0056343 2.2557988 0 
4.950098 2.219553 0 4.9081168 2.279429 0 3.5114822 4.0873384 0 4.7568212 2.7459216 0 4.7731442 2.8351846 0 4.8666735 2.8124623 0 1.5238594 4 0 1.91758 3.5746481 0 5.0607967 2.2103555 0 
5.21769 2.409924 0 4.8430204 2.2645783 0 5.1319494 2.1594071 0 5.2229233 2.1492503 0 8.0800619 2.6062152 0 4.9446807 2.7750947 0 5.0004516 2.7390933 0 7.0766592 2.0212126 0 7.0478344 2.4422252 0 
7.568018 2.4439862 0 7.586679 1.9504895 0 2.009351 0.55017638 0 5.5045748 2.6000614 0 5.4347019 2.5000069 0 5.4143381 2.669894 0 6.7755828 3.7016478 0 6.3059931 3.5289412 0 5.9783983 3.8681462 0 
5.0579782 2.7755888 0 6.5866861 1.7952411 0 6.3399129 1.5042876 0 6.0689607 1.8160986 0 6.25632 1.9927267 0 4.5991974 1.3868662 0 4.8870702 1.1389004 0 4.7753811 2.1678665 0 4.7590351 2.2577279 0 
4.8717456 2.186121 0 4.7677584 2.658108 0 4.6772194 2.2824168 0 3.9379706 1.9824569 0 4.1445794 2.2173007 0 4.3055725 2.0352807 0 5.13662 1.4489462 0 5.5778761 1.2502451 0 3.1834903 1.4612736 0 
2.8022187 1.4259734 0 2.8973532 2.0048163 0 3.2276411 1.9711854 0 3.6440401 1.7196033 0 5.3409796 2.142271 0 5.3353291 1.9554037 0 5.1981516 1.9850411 0 4.843606 3.9019892 0 4.5644622 3.6673422 0 
4.2221785 3.8566813 0 4.9185634 2.886085 0 5.0005369 2.8360896 0 4.5480652 2.8210394 0 4.6527133 2.8628812 0 4.6774945 2.7159939 0 7.5688176 1.4442221 0 2.3766093 1.9074656 0 2.4860957 1.0650502 0 
2.9950669 3.2809656 0 3.1994476 3.6771386 0 2.7386053 3.6175137 0 5.5107975 1.9595828 0 5.452147 2.1746581 0 5.5838552 2.2279208 0 5.6860147 1.9966486 0 5.1232386 1.8170111 0 5.0899348 2.063946 0 
5.2106953 3.8888366 0 5.605689 3.6265316 0 2.2983923 3.1538098 0 5.8653388 3.098314 0 6.0149341 3.329664 0 5.7482944 3.3355508 0 3.5850604 2.3746133 0 3.7323503 2.5869637 0 3.9611452 2.4162145 0 
3.8345523 2.2436643 0 5.353375 2.839592 0 5.4663062 2.8062897 0 5.3243976 2.7150419 0 6.770216 1.1959827 0 7.0112309 1.6011236 0 3.9093652 3.7234247 0 3.5985096 3.4513757 0 5.015501 2.1353037 0 
6.2654171 2.7069137 0 6.3986487 2.5036771 0 6.1353917 2.3839889 0 6.0252128 2.5743454 0 5.0834494 2.8861053 0 5.8665304 2.0884397 0 5.7092876 2.3198159 0 5.8375139 2.4374518 0 6.0208883 2.2187159 0 
3.3333206 3.1725659 0 3.0759695 2.7779779 0 2.6793592 2.8888469 0 5.411128 2.322681 0 5.4933901 2.3972671 0 5.7426977 2.6091037 0 5.8887105 2.7628262 0 5 2.9636543 0 5.1180916 3.0374529 0 
5.1958566 2.9387305 0 6.3220892 3.0752325 0 5.6023822 2.7341702 0 5.6055059 2.4855278 0 4.5891118 2.3307483 0 4.4961152 2.4063344 0 5.3013744 1.7012588 0 5.53582 1.6595351 0 6.5684209 2.809767 0 
6.0804138 2.9262803 0 4.883924 3.5842869 0 4.9939046 3.3593788 0 4.8474989 3.2700469 0 4.7022161 3.4548018 0 4.9947906 3.1332753 0 5.1506128 3.2589352 0 5.2692842 3.1230035 0 4.6800518 2.0260673 0 
4.6533198 2.1503751 0 3.8813901 3.1858253 0 3.6444147 2.9722271 0 4.0846653 2.9175658 0 4.1440997 3.3307409 0 4.2824574 3.0245576 0 4.553937 2.1988516 0 4.4809179 1.9701374 0 4.4063797 2.2550814 0 
2.9204404 2.4011219 0 2.404741 2.3318989 0 5.5299163 2.9995475 0 5.3363748 2.9687154 0 5.4895892 3.217171 0 4.2368541 2.6997812 0 4.0960941 2.5726738 0 3.9000263 2.775141 0 3.5378351 2.0413888 0 
4.3611546 3.4059618 0 4.5175052 3.2494762 0 5.813972 1.690599 0 5.9901137 1.3096017 0 4.8092647 2.9423106 0 4.8842549 3.0396645 0 4.7414012 1.8760366 0 4.5202436 1.7900151 0 4.2602925 2.3771822 0 
4.3734956 2.5241244 0 5.1521807 3.5905225 0 5.3373027 3.4309058 0 5.7197227 2.9274673 0 6.6676059 2.1554389 0 6.6621914 2.4742346 0 4.7357817 3.1426408 0 6.4032111 2.2050231 0 3.2968507 2.3900383 0 
4.6717405 2.9938412 0 3.4453597 2.7431118 0 4.478827 3.0612195 0 4.3976727 2.7800512 0 4.9583259 1.6386094 0 4.7612925 1.6050565 0 5.1910248 2.778141 0 9.5 4.5 0 7.4377294 0.51605725 0 
4.147655 1.5305921 0 2.4932313 4.480195 0 4.6861782 2.5615788 0 4.8679347 2.6974454 0 6.97996 3.0487795 0 5.3136058 2.5615299 0 4.9120545 2.0017233 0 5.2286186 2.5448201 0 6.5182118 4.5118737 0 
[...]
POINT_DATA 642
VECTORS RF float
-0.50091249 -1.4907495e-14 0 0 0 0 0 0 0 
-0.50092024 0 0 0 0 0 0 0 0 
0 0 0 0 0 0 0 0 0 
0 0 0 0 0 0 0 0 0 
0 0 0 0 0 0 0 0 0 
0 0 0 0 0 0 0 0 0 
0 0 0 0 0 0 0 0 0 
0 0 0 0 0 0 0 0 0 
0 0 0 0 0 0 0 0 0 
0 0 0 0 0 0 0 0 0 
0 0 0 0 0 0 0 0 0 
0 0 0 0 0 0 0 0 0 
0 0 0 0 0 0 0 0 0 
0 0 0 0 0 0 0 0 0 
0 0 0 0 0 0 0 0 0 
0 0 0 0 0 0 0 0 0 
0 0 0 0 0 0 0 0 0 
-1.0016915 0 0 -1.0007478 0 0 -0.99940163 0 0 
-0.99829173 0 0 -0.99786419 0 0 -0.99831259 0 0 
-0.99942344 0 0 -1.0007535 0 0 -1.0016809 0 0 
0 0 0 0 0 0 0 0 0 
0 0 0 0 0 0 0 0 0 
0 0 0 0 0 0 0 0 0 
0 0 0 0 0 0 0 0 0 
0 0 0 0 0 0 0 0 0 
0 0 0 0 0 0 0 0 0 
0 0 0 0 0 0 0 0 0 
0 0 0 0 0 0 0 0 0 
0 0 0 0 0 0 0 0 0 
0 0 0 0 0 0 0 0 0 
0 0 0 0 0 0 0 0 0 
0 0 0 0 0 0 0 0 0 
0 0 0 0 0 0 0 0 0 
0 0 0 0 0 0 0 0 0 
0 0 0 0 0 0 0 0 0 
0 0 0 0 0 0 0 0 0 
0 0 0 0 0 0 0 0 0 
0 0 0 0 0 0 0 0 0 
0 0 0 0 0 0 0 0 0 
0 0 0 0 0 0 0 0 0 
0 0 0 0 0 0 0 0 0 
0 0 0 0 0 0 0 0 0 
0 0 0 0 0 0 0 0 0 
0 0 0 0 0 0 0 0 0 
0 0 0 0 0 0 0 0 0 
0 0 0 0 0 0 0 0 0 
0 0 0 0 0 0 0 0 0 
0 0 0 0 0 0 0 0 0 
0 0 0 0 0 0 0 0 0 
0 0 0 0 0 0 0 0 0 
0 0 0 0 0 0 0 0 0 
0 0 0 0 0 0 0 0 0 
0 0 0 0 0 0 0 0 0 
0 0 0 0 0 0 0 0 0 
0 0 0 0 0 0 0 0 0 
0 0 0 0 0 0 0 0 0 
0 0 0 0 0 0 0 0 0 
0 0 0 0 0 0 0 0 0 
0 0 0 0 0 0 0 0 0 
0 0 0 0 0 0 0 0 0 
0 0 0 0 0 0 0 0 0 
0 0 0 0 0 0 0 0 0 
0 0 0 0 0 0 0 0 0 
0 0 0 0 0 0 0 0 0 
0 0 0 0 0 0 0 0 0 
0 0 0 0 0 0 0 0 0 
0 0 0 0 0 0 0 0 0 
0 0 0 0 0 0 0 0 0 
0 0 0 0 0 0 0 0 0 
0 0 0 0 0 0 0 0 0 
0 0 0 0 0 0 0 0 0 
0 0 0 0 0 0 0 0 0 
0 0 0 0 0 0 0 0 0 
0 0 0 0 0 0 0 0 0 
0 0 0 0 0 0 0 0 0 
0 0 0 0 0 0 0 0 0 
0 0 0 0 0 0 0 0 0 
0 0 0 0 0 0 0 0 0 
0 0 0 0 0 0 0 0 0 
0 0 0 0 0 0 0 0 0 
0 0 0 0 0 0 0 0 0 
0 0 0 0 0 0 0 0 0 
0 0 0 0 0 0 0 0 0 
0 0 0 0 0 0 0 0 0 
0 0 0 0 0 0 0 0 0 
0 0 0 0 0 0 0 0 0 
0 0 0 0 0 0 0 0 0 
0 0 0 0 0 0 0 0 0 
0 0 0 0 0 0 0 0 0 
0 0 0 0 0 0 0 0 0 
0 0 0 0 0 0 0 0 0 
0 0 0 0 0 0 0 0 0 
0 0 0 0 0 0 0 0 0 
0 0 0 0 0 0 0 0 0 
0 0 0 0 0 0 0 0 0 
0 0 0 0 0 0 0 0 0 
0 0 0 0 0 0 0 0 0 
0 0 0 0 0 0 0 0 0 
0 0 0 0 0 0 0 0 0 
0 0 0 0 0 0 0 0 0 
0 0 0 0 0 0 0 0 0 
0 0 0 0 0 0 0 0 0 
0 0 0 0 0 0 0 0 0 
0 0 0 0 0 0 0 0 0 
0 0 0 0 0 0 0 0 0 
0 0 0 0 0 0 0 0 0 
0 0 0 0 0 0 0 0 0 
0 0 0 0 0 0 0 0 0 
0 0 0 0 0 0 0 0 0 
0 0 0 0 0 0 0 0 0 
0 0 0 0 0 0 0 0 0 
0 0 0 0 0 0 0 0 0 
0 0 0 0 0 0 0 0 0 
0 0 0 0 0 0 0 0 0 
0 0 0 0 0 0 0 0 0 
0 0 0 0 0 0 0 0 0 
0 0 0 0 0 0 0 0 0 
0 0 0 0 0 0 0 0 0 
0 0 0 0 0 0 0 0 0 
0 0 0 0 0 0 0 0 0 
0 0 0 0 0 0 0 0 0 
0 0 0 0 0 0 0 0 0 
0 0 0 0 0 0 0 0 0 
0 0 0 0 0 0 0 0 0 
0 0 0 0 0 0 0 0 0 
0 0 0 0 0 0 0 0 0 
0 0 0 0 0 0 0 0 0 
0 0 0 0 0 0 0 0 0 
0 0 0 0 0 0 0 0 0 
0 0 0 0 0 0 0 0 0 
0 0 0 0 0 0 0 0 0 
0 0 0 0 0 0 0 0 0 
0 0 0 0 0 0 0 0 0 
0 0 0 0 0 0 0 0 0 
0 0 0 0 0 0 0 0 0 
0 0 0 0 0 0 0 0 0 
0 0 0 0 0 0 0 0 0 
0 0 0 0 0 0 0 0 0 
0 0 0 0 0 0 0 0 0 
0 0 0 0 0 0 0 0 0 
0 0 0 0 0 0 0 0 0 
0 0 0 0 0 0 0 0 0 
0 0 0 0 0 0 0 0 0 
0 0 0 0 0 0 0 0 0 
0 0 0 0 0 0 0 0 0 
0 0 0 0 0 0 0 0 0 
0 0 0 0 0 0 0 0 0 
0 0 0 0 0 0 0 0 0 
0 0 0 0 0 0 0 0 0 
0 0 0 0 0 0 0 0 0 
0 0 0 0 0 0 0 0 0 
0 0 0 0 0 0 0 0 0 
0 0 0 0 0 0 0 0 0 
0 0 0 0 0 0 0 0 0 
0 0 0 0 0 0 0 0 0 
0 0 0 0 0 0 0 0 0 
0 0 0 0 0 0 0 0 0 
0 0 0 0 0 0 0 0 0 
0 0 0 0 0 0 0 0 0 
0 0 0 0 0 0 0 0 0 
0 0 0 0 0 0 0 0 0 
0 0 0 0 0 0 0 0 0 
0 0 0 0 0 0 0 0 0 
0 0 0 0 0 0 0 0 0 
0 0 0 0 0 0 0 0 0 
0 0 0 0 0 0 0 0 0 
0 0 0 0 0 0 0 0 0 
0 0 0 0 0 0 0 0 0 
0 0 0 0 0 0 0 0 0 
0 0 0 0 0 0 0 0 0 
0 0 0 0 0 0 0 0 0 
0 0 0 0 0 0 0 0 0 
0 0 0 0 0 0 0 0 0 
0 0 0 0 0 0 0 0 0 
0 0 0 0 0 0 0 0 0 
0 0 0 0 0 0 0 0 0 
0 0 0 0 0 0 0 0 0 
0 0 0 0 0 0 0 0 0 
0 0 0 0 0 0 0 0 0 
0 0 0 0 0 0 0 0 0 
0 0 0 0 0 0 0 0 0 
0 0 0 0 0 0 0 0 0 
0 0 0 0 0 0 0 0 0 
0 0 0 0 0 0 0 0 0 
0 0 0 0 0 0 0 0 0 
0 0 0 0 0 0 0 0 0 
0 0 0 0 0 0 0 0 0 
0 0 0 0 0 0 0 0 0 
0 0 0 0 0 0 0 0 0 
0 0 0 0 0 0 0 0 0 
0 0 0 0 0 0 0 0 0 
0 0 0 0 0 0 0 0 0 
0 0 0 0 0 0 0 0 0 
0 0 0 0 0 0 0 0 0 
0 0 0 0 0 0 0 0 0 
0 0 0 0 0 0 0 0 0 
0 0 0 0 0 0 0 0 0 
0 0 0 0 0 0 0 0 0 
0 0 0 0 0 0 0 0 0 
0 0 0 0 0 0 0 0 0 
0 0 0 0 0 0 0 0 0 
0 0 0 0 0 0 0 0 0 
0 0 0 0 0 0 0 0 0 
0 0 0 0 0 0 0 0 0 
0 0 0 0 0 0 0 0 0 
0 0 0 0 0 0 0 0 0 
0 0 0 0 0 0 0 0 0 
0 0 0 0 0 0 0 0 0 
0 0 0 0 0 0 0 0 0 
0 0 0 0 0 0 0 0 0 
0 0 0 0 0 0 0 0 0 
0 0 0 0 0 0 0 0 0 
0 0 0 0 0 0 0 0 0 
0 0 0 0 0 0 0 0 0 
VECTORS RM float
0 0 5.8815783e-07 0 0 0 0 0 0 
0 0 -5.8994249e-07 0 0 0 0 0 0 
0 0 0 0 0 0 0 0 0 
0 0 0 0 0 0 0 0 0 
0 0 0 0 0 0 0 0 0 
0 0 0 0 0 0 0 0 0 
0 0 0 0 0 0 0 0 0 
0 0 0 0 0 0 0 0 0 
0 0 0 0 0 0 0 0 0 
0 0 0 0 0 0 0 0 0 
0 0 0 0 0 0 0 0 0 
0 0 0 0 0 0 0 0 0 
0 0 0 0 0 0 0 0 0 
0 0 0 0 0 0 0 0 0 
0 0 0 0 0 0 0 0 0 
0 0 0 0 0 0 0 0 0 
0 0 0 0 0 0 0 0 0 
0 0 -1.1610475e-06 0 0 -1.0293727e-06 0 0 -7.7557127e-07 
0 0 -3.9529837e-07 0 0 1.589976e-08 0 0 4.0666959e-07 
0 0 7.7125503e-07 0 0 1.0369992e-06 0 0 1.1635183e-06 
0 0 0 0 0 0 0 0 0 
0 0 0 0 0 0 0 0 0 
0 0 0 0 0 0 0 0 0 
0 0 0 0 0 0 0 0 0 
0 0 0 0 0 0 0 0 0 
0 0 0 0 0 0 0 0 0 
0 0 0 0 0 0 0 0 0 
0 0 0 0 0 0 0 0 0 
0 0 0 0 0 0 0 0 0 
0 0 0 0 0 0 0 0 0 
0 0 0 0 0 0 0 0 0 
0 0 0 0 0 0 0 0 0 
0 0 0 0 0 0 0 0 0 
0 0 0 0 0 0 0 0 0 
0 0 0 0 0 0 0 0 0 
0 0 0 0 0 0 0 0 0 
0 0 0 0 0 0 0 0 0 
0 0 0 0 0 0 0 0 0 
0 0 0 0 0 0 0 0 0 
0 0 0 0 0 0 0 0 0 
0 0 0 0 0 0 0 0 0 
0 0 0 0 0 0 0 0 0 
0 0 0 0 0 0 0 0 0 
0 0 0 0 0 0 0 0 0 
0 0 0 0 0 0 0 0 0 
0 0 0 0 0 0 0 0 0 
0 0 0 0 0 0 0 0 0 
0 0 0 0 0 0 0 0 0 
0 0 0 0 0 0 0 0 0 
0 0 0 0 0 0 0 0 0 
0 0 0 0 0 0 0 0 0 
0 0 0 0 0 0 0 0 0 
0 0 0 0 0 0 0 0 0 
0 0 0 0 0 0 0 0 0 
0 0 0 0 0 0 0 0 0 
0 0 0 0 0 0 0 0 0 
0 0 0 0 0 0 0 0 0 
0 0 0 0 0 0 0 0 0 
0 0 0 0 0 0 0 0 0 
0 0 0 0 0 0 0 0 0 
0 0 0 0 0 0 0 0 0 
0 0 0 0 0 0 0 0 0 
0 0 0 0 0 0 0 0 0 
0 0 0 0 0 0 0 0 0 
0 0 0 0 0 0 0 0 0 
0 0 0 0 0 0 0 0 0 
0 0 0 0 0 0 0 0 0 
0 0 0 0 0 0 0 0 0 
0 0 0 0 0 0 0 0 0 
0 0 0 0 0 0 0 0 0 
0 0 0 0 0 0 0 0 0 
0 0 0 0 0 0 0 0 0 
0 0 0 0 0 0 0 0 0 
0 0 0 0 0 0 0 0 0 
0 0 0 0 0 0 0 0 0 
0 0 0 0 0 0 0 0 0 
0 0 0 0 0 0 0 0 0 
0 0 0 0 0 0 0 0 0 
0 0 0 0 0 0 0 0 0 
0 0 0 0 0 0 0 0 0 
0 0 0 0 0 0 0 0 0 
0 0 0 0 0 0 0 0 0 
0 0 0 0 0 0 0 0 0 
0 0 0 0 0 0 0 0 0 
0 0 0 0 0 0 0 0 0 
0 0 0 0 0 0 0 0 0 
0 0 0 0 0 0 0 0 0 
0 0 0 0 0 0 0 0 0 
0 0 0 0 0 0 0 0 0 
0 0 0 0 0 0 0 0 0 
0 0 0 0 0 0 0 0 0 
0 0 0 0 0 0 0 0 0 
0 0 0 0 0 0 0 0 0 
0 0 0 0 0 0 0 0 0 
0 0 0 0 0 0 0 0 0 
0 0 0 0 0 0 0 0 0 
0 0 0 0 0 0 0 0 0 
0 0 0 0 0 0 0 0 0 
0 0 0 0 0 0 0 0 0 
0 0 0 0 0 0 0 0 0 
0 0 0 0 0 0 0 0 0 
0 0 0 0 0 0 0 0 0 
0 0 0 0 0 0 0 0 0 
0 0 0 0 0 0 0 0 0 
0 0 0 0 0 0 0 0 0 
0 0 0 0 0 0 0 0 0 
0 0 0 0 0 0 0 0 0 
0 0 0 0 0 0 0 0 0 
0 0 0 0 0 0 0 0 0 
0 0 0 0 0 0 0 0 0 
0 0 0 0 0 0 0 0 0 
0 0 0 0 0 0 0 0 0 
0 0 0 0 0 0 0 0 0 
0 0 0 0 0 0 0 0 0 
0 0 0 0 0 0 0 0 0 
0 0 0 0 0 0 0 0 0 
0 0 0 0 0 0 0 0 0 
0 0 0 0 0 0 0 0 0 
0 0 0 0 0 0 0 0 0 
0 0 0 0 0 0 0 0 0 
0 0 0 0 0 0 0 0 0 
0 0 0 0 0 0 0 0 0 
0 0 0 0 0 0 0 0 0 
0 0 0 0 0 0 0 0 0 
0 0 0 0 0 0 0 0 0 
0 0 0 0 0 0 0 0 0 
0 0 0 0 0 0 0 0 0 
0 0 0 0 0 0 0 0 0 
0 0 0 0 0 0 0 0 0 
0 0 0 0 0 0 0 0 0 
0 0 0 0 0 0 0 0 0 
0 0 0 0 0 0 0 0 0 
0 0 0 0 0 0 0 0 0 
0 0 0 0 0 0 0 0 0 
0 0 0 0 0 0 0 0 0 
0 0 0 0 0 0 0 0 0 
0 0 0 0 0 0 0 0 0 
0 0 0 0 0 0 0 0 0 
0 0 0 0 0 0 0 0 0 
0 0 0 0 0 0 0 0 0 
0 0 0 0 0 0 0 0 0 
0 0 0 0 0 0 0 0 0 
0 0 0 0 0 0 0 0 0 
0 0 0 0 0 0 0 0 0 
0 0 0 0 0 0 0 0 0 
0 0 0 0 0 0 0 0 0 
0 0 0 0 0 0 0 0 0 
0 0 0 0 0 0 0 0 0 
0 0 0 0 0 0 0 0 0 
0 0 0 0 0 0 0 0 0 
0 0 0 0 0 0 0 0 0 
0 0 0 0 0 0 0 0 0 
0 0 0 0 0 0 0 0 0 
0 0 0 0 0 0 0 0 0 
0 0 0 0 0 0 0 0 0 
0 0 0 0 0 0 0 0 0 
0 0 0 0 0 0 0 0 0 
0 0 0 0 0 0 0 0 0 
0 0 0 0 0 0 0 0 0 
0 0 0 0 0 0 0 0 0 
0 0 0 0 0 0 0 0 0 
0 0 0 0 0 0 0 0 0 
0 0 0 0 0 0 0 0 0 
0 0 0 0 0 0 0 0 0 
0 0 0 0 0 0 0 0 0 
0 0 0 0 0 0 0 0 0 
0 0 0 0 0 0 0 0 0 
0 0 0 0 0 0 0 0 0 
0 0 0 0 0 0 0 0 0 
0 0 0 0 0 0 0 0 0 
0 0 0 0 0 0 0 0 0 
0 0 0 0 0 0 0 0 0 
0 0 0 0 0 0 0 0 0 
0 0 0 0 0 0 0 0 0 
0 0 0 0 0 0 0 0 0 
0 0 0 0 0 0 0 0 0 
0 0 0 0 0 0 0 0 0 
0 0 0 0 0 0 0 0 0 
0 0 0 0 0 0 0 0 0 
0 0 0 0 0 0 0 0 0 
0 0 0 0 0 0 0 0 0 
0 0 0 0 0 0 0 0 0 
0 0 0 0 0 0 0 0 0 
0 0 0 0 0 0 0 0 0 
0 0 0 0 0 0 0 0 0 
0 0 0 0 0 0 0 0 0 
0 0 0 0 0 0 0 0 0 
0 0 0 0 0 0 0 0 0 
0 0 0 0 0 0 0 0 0 
0 0 0 0 0 0 0 0 0 
0 0 0 0 0 0 0 0 0 
0 0 0 0 0 0 0 0 0 
0 0 0 0 0 0 0 0 0 
0 0 0 0 0 0 0 0 0 
0 0 0 0 0 0 0 0 0 
0 0 0 0 0 0 0 0 0 
0 0 0 0 0 0 0 0 0 
0 0 0 0 0 0 0 0 0 
0 0 0 0 0 0 0 0 0 
0 0 0 0 0 0 0 0 0 
0 0 0 0 0 0 0 0 0 
0 0 0 0 0 0 0 0 0 
0 0 0 0 0 0 0 0 0 
0 0 0 0 0 0 0 0 0 
0 0 0 0 0 0 0 0 0 
0 0 0 0 0 0 0 0 0 
0 0 0 0 0 0 0 0 0 
0 0 0 0 0 0 0 0 0 
0 0 0 0 0 0 0 0 0 
0 0 0 0 0 0 0 0 0 
0 0 0 0 0 0 0 0 0 
0 0 0 0 0 0 0 0 0 
0 0 0 0 0 0 0 0 0 
0 0 0 0 0 0 0 0 0 
VECTORS U float
5.009125e-37 0 0 0.20140159 -5.2848893e-05 0 0.20140269 0.0002303009 0 
5.0092026e-37 0.00018301223 0 0.010020403 -3.9524207e-06 0 0.02005046 -1.412451e-05 0 
0.030101083 -2.5043233e-05 0 0.040184107 -2.3822564e-05 0 0.050306302 1.0214e-05 0 
0.060467988 0.00011013417 0 0.070638984 0.0002977004 0 0.08076185 0.00055349298 0 
0.090797611 0.00079410686 0 0.10074162 0.00089747738 0 0.11069036 0.00078814587 0 
0.12073175 0.00054572406 0 0.13085616 0.00029600537 0 0.14102341 0.00011637195 0 
0.15117517 2.3885676e-05 0 0.16128361 -1.2070559e-05 0 0.17135383 -2.0908543e-05 0 
0.1813903 -2.1588334e-05 0 0.19140086 -3.072674e-05 0 0.20142977 -5.2279498e-05 0 
0.20146948 -4.3828153e-05 0 0.20151569 -1.7656103e-05 0 0.20155303 2.8712262e-05 0 
0.20156787 8.7891764e-05 0 0.2015541 0.00014730886 0 0.20151736 0.00019422518 0 
0.20147115 0.00022090384 0 0.20143121 0.00022958126 0 0.19140191 0.00020778326 0 
0.18139231 0.00019798389 0 0.17135921 0.00019874251 0 0.16128883 0.0001938107 0 
0.15117444 0.0001591967 0 0.14101836 6.0294315e-05 0 0.13085069 -0.00012192866 0 
0.12072463 -0.00037465926 0 0.11069272 -0.00061897491 0 0.10074879 -0.00072051771 0 
0.090802886 -0.00061413681 0 0.080766521 -0.00036892277 0 0.070640579 -0.00011367192 0 
0.060468886 7.1830334e-05 0 0.050307296 0.00017131188 0 0.040184643 0.00020600432 0 
0.030101674 0.0002077036 0 0.020050976 0.00019706583 0 0.010020608 0.00018697666 0 
1.0016915e-36 0.00018095282 0 1.0007477e-36 0.00017214175 0 9.9940167e-37 0.00015335403 0 
9.9829175e-37 0.00012517245 0 9.9786423e-37 9.1221955e-05 0 9.9831265e-37 5.7374204e-05 0 
9.9942346e-37 2.9405097e-05 0 1.0007535e-36 1.0788643e-05 0 1.0016809e-36 2.0444061e-06 0 
0.11270624 8.3622035e-05 0 0.11247683 -0.00068816845 0 0.1117857 -0.0014204009 0 
0.11068292 -0.0021118443 0 0.10917714 -0.0026986557 0 0.1073781 -0.0031982071 0 
0.10530389 -0.0035672141 0 0.10307264 -0.0037899094 0 0.10074363 -0.0038691992 0 
0.09841495 -0.0037873327 0 0.096186921 -0.00356429 0 0.094111949 -0.003194313 0 
0.092321411 -0.002688359 0 0.090819672 -0.0021018134 0 0.089707203 -0.0014195183 0 
0.089020185 -0.00068130123 0 0.088790655 9.0489732e-05 0 0.089020155 0.00086421176 0 
0.089712627 0.0015933085 0 0.090814732 0.0022885813 0 0.092330605 0.0028655021 0 
0.094116487 0.0033683453 0 0.096194245 0.0037312286 0 0.098434024 0.0039461334 0 
0.10077404 0.0040333234 0 0.10307955 0.0039431439 0 0.1052859 0.0037147938 0 
0.10735931 0.0033454234 0 0.10917743 0.0028571782 0 0.1106756 0.00227039 0 
0.11178657 0.0015900554 0 0.11247459 0.0008531161 0 0.020017926 -1.9758875e-06 0 
0.020017847 0.00018486337 0 0.040046826 0.00019575733 0 0.16144034 0.00018447558 0 
0.18146518 0.00018401521 0 0.18128175 -4.9354853e-06 0 0.1579719 4.2346373e-06 0 
0.040259231 -1.1407024e-05 0 0.18242829 0.00012475649 0 0.18242656 5.2397292e-05 0 
0.019096663 0.00012697105 0 0.019097818 5.543619e-05 0 0.10105691 0.0034916261 0 
0.10077632 -0.0034214957 0 0.097042374 -0.0027509606 0 0.10451984 -0.0027148882 0 
0.097120509 0.0029538122 0 0.1042079 0.0028657338 0 0.10819948 -0.0013866602 0 
0.093358703 0.0015653019 0 0.09333919 -0.0013570171 0 0.10802052 0.0016068794 0 
0.11146247 0.00052439311 0 0.11146673 -0.00035884749 0 0.090030499 0.0005284666 0 
0.090034761 -0.00035011486 0 0.08874464 9.0594549e-05 0 0.11274954 8.4366337e-05 0 
0.12096323 -0.00033896355 0 0.08127892 -0.00034082393 0 0.11715951 0.00062111038 0 
0.080775313 0.0004893532 0 0.098829448 0.00098346034 0 0.1003576 -0.0008063626 0 
0.077691346 -5.6635312e-05 0 0.065589622 0.00011049682 0 0.13534202 0.00010277655 0 
0.12268032 0.00026733233 0 0.13516688 8.9227913e-05 0 0.092712641 0.0009427917 0 
0.0928014 -0.0007884996 0 0.10887592 -0.00074089208 0 0.10858977 0.00098992384 0 
0.11197103 -8.5101383e-06 0 0.089539014 0.00018742014 0 0.089517474 -3.3053261e-06 0 
0.11197952 0.00017716938 0 0.1007447 -0.0027097333 0 0.10110387 0.002608316 0 
0.037652399 0.00014449569 0 0.040623777 4.6378515e-05 0 0.16389176 0.00013873419 0 
0.16078988 5.4071959e-05 0 0.11329694 8.5364787e-05 0 0.088191144 9.0163623e-05 0 
0.096823916 0.0022316466 0 0.096684426 -0.0020008299 0 0.10490754 -0.0019684809 0 
0.10460925 0.0020878636 0 0.10736489 -0.00087175454 0 0.095645942 -0.00091915147 0 
0.098086149 0.0012467883 0 0.077009462 0.00011637098 0 0.067069009 0.00013311053 0 
0.13463114 0.00013200256 0 0.12348627 6.4591906e-05 0 0.12327924 7.3392082e-05 0 
0.13167831 5.1410214e-05 0 0.067228235 6.1931314e-05 0 0.077786036 0.00018461257 0 
0.11471239 8.6633263e-05 0 0.086652331 9.8777957e-05 0 0.11361483 0.00010248988 0 
0.087980188 7.3086339e-05 0 0.087960057 9.020057e-05 0 0.11342685 8.5719657e-05 0 
0.10074377 -0.0020576532 0 0.1008433 0.0018099158 0 0.1060029 -0.0014042399 0 
0.095700242 -0.0014353733 0 0.095935576 0.001682136 0 0.10589717 0.0014687247 0 
0.14783858 3.0882224e-05 0 0.1481614 0.00014981974 0 0.053477194 0.00015620769 0 
0.053744107 2.844088e-05 0 0.088359088 0.00074543786 0 0.08826451 -0.00056777609 0 
0.077345766 0.00011475707 0 0.12386116 0.00013501548 0 0.12239965 5.6965135e-05 0 
0.078648932 4.0241513e-05 0 0.086926565 0.00046577957 0 0.1153184 -0.00020798185 0 
0.086770095 -0.00031082562 0 0.11428453 0.00049709395 0 0.072367087 5.5469958e-05 0 
0.12852076 6.5860324e-05 0 0.11788518 7.0980175e-05 0 0.082892932 0.00011123101 0 
0.1168818 8.4937157e-05 0 0.11777319 0.00014238183 0 0.084198438 4.9494574e-05 0 
0.083919674 9.8944998e-05 0 0.10050572 -0.0015524938 0 0.107383 -0.0010385228 0 
0.094350643 -0.0010485399 0 0.093991369 0.0012023236 0 0.054504771 0.00010238506 0 
0.14614242 0.00010640264 0 0.091022283 0.00066328933 0 0.091101803 -0.00051882904 0 
0.11088818 -0.00041205966 0 0.11034092 0.00070230244 0 0.13195695 0.00010879846 0 
0.13896474 6.625706e-05 0 0.061360005 5.8437246e-05 0 0.069492154 9.8551282e-05 0 
0.10883329 0.001014051 0 0.10074431 -0.0011654969 0 0.058849666 5.7452406e-05 0 
0.13795388 0.00012798441 0 0.059661616 0.00011369856 0 0.14234598 0.00010911048 0 
0.11988721 -0.00021782794 0 0.10636535 -0.0020934998 0 0.10462581 -0.0023090246 0 
0.10690841 -0.0013542677 0 0.10836922 -0.0010066072 0 0.19146989 0.00019145134 0 
0.18141498 0.00019524479 0 0.13949727 0.00012961155 0 0.14858349 2.7461527e-05 0 
0.15989821 -8.8901552e-06 0 0.078223489 0.00031537248 0 0.082627408 0.00028480616 0 
0.087264299 0.00060837355 0 0.085268207 0.00062149175 0 0.059799295 8.7572822e-05 0 
0.050022289 0.00017394222 0 0.040133853 0.00020372395 0 0.088566154 9.01038e-05 0 
0.088566385 0.00010216862 0 0.089879341 -0.00012650323 0 0.089069016 -8.4661231e-05 0 
0.093081452 -0.0018696716 0 0.095169805 -0.0021034428 0 0.096818104 -0.0031661394 0 
0.14180623 0.00014113437 0 0.14798661 0.00013217104 0 0.14030677 0.00012386174 0 
0.13500598 0.00012616812 0 0.1124378 -9.171202e-05 0 0.11161797 -0.00012871533 0 
0.11292694 9.7477976e-05 0 0.11292994 8.4646104e-05 0 0.099029705 0.0026519441 0 
0.10102177 0.0021705211 0 0.098326057 0.0018860908 0 0.096459143 0.0019408853 0 
0.11270642 8.5206309e-05 0 0.11153337 -0.00075700227 0 0.1316305 -5.1783409e-05 0 
0.1208578 -0.00036893372 0 0.1421431 8.223355e-05 0 0.1099589 -0.00081513741 0 
0.10845207 -0.0019106625 0 0.010008404 7.2905436e-06 0 0.020045729 -1.1782801e-05 0 
0.010005493 0.0001251834 0 0.019089101 9.1102986e-05 0 0.010005832 5.7318855e-05 0 
0.020046003 0.00019476713 0 0.010008374 0.00017561413 0 0.019530391 0.00016020583 0 
0.11043429 -0.00066440366 0 0.10053343 -0.00073946448 0 0.17097777 0.00018610041 0 
0.18197727 0.00015841902 0 0.17310101 0.00012977005 0 0.16318943 0.00017014507 0 
0.19153102 4.7569705e-05 0 0.1824412 8.8486006e-05 0 0.19153216 0.00012912558 0 
0.18106665 -1.7368524e-05 0 0.19146816 -1.4400776e-05 0 0.18197551 1.8874971e-05 0 
0.17031029 -3.1758666e-06 0 0.16172245 2.0312402e-05 0 0.17141312 5.4059976e-05 0 
0.093082942 0.0020695236 0 0.091563709 0.00099285727 0 0.089961722 0.00092583074 0 
0.088936672 5.7329118e-05 0 0.087578125 9.3677831e-05 0 0.087050684 0.00015409842 0 
0.089069761 0.00026352447 0 0.089880496 0.00030432924 0 0.08858493 8.0914549e-05 0 
0.029963909 5.0481842e-05 0 0.040499821 9.8587325e-06 0 0.030691197 -1.1284171e-05 0 
0.019530846 2.242799e-05 0 0.028286656 0.00013429219 0 0.039025743 9.4831725e-05 0 
0.059299756 8.7146072e-05 0 0.069986604 0.0002110215 0 0.080463879 0.00053581747 0 
0.090730913 -0.00065667235 0 0.080982618 -0.00037213697 0 0.10470591 -0.0031474696 0 
0.089960031 -0.00074802461 0 0.088789932 8.8191562e-05 0 0.11880815 0.00059694727 0 
0.099521004 0.00091865112 0 0.10809655 0.00090402609 0 0.1116145 0.00029923796 0 
0.11242855 0.00025780045 0 0.1129064 7.6475662e-05 0 0.11040335 0.00050068152 0 
0.10805406 0.0012778791 0 0.10989422 0.0010029817 0 0.10834248 0.0020922367 0 
0.10606659 0.0022797734 0 0.10444599 0.003295097 0 0.089533284 0.00080399931 0 
0.16134465 0.00019179049 0 0.12747917 0.00031944332 0 0.15585478 0.00014851616 0 
0.14718753 0.00015236407 0 0.15192229 0.00016533563 0 0.10098724 0.0038651957 0 
0.099144831 0.0034560566 0 0.096830055 0.0033372755 0 0.070487604 -5.3179585e-05 0 
0.093196154 -0.0010095173 0 0.09472695 -0.0013926567 0 0.096962713 -0.0023495711 0 
0.030507995 0.00019485557 0 0.038314059 0.00017962369 0 0.10263368 0.0033016806 0 
0.11153605 0.00092081982 0 0.095195606 0.0022860491 0 0.10427197 0.0024520941 0 
0.10653106 0.0016115111 0 0.16326515 9.8597971e-05 0 0.098922014 -0.0032848204 0 
0.10076555 -0.0037419908 0 0.14334305 4.6113619e-05 0 0.14286283 8.3785322e-05 0 
0.15311261 8.3374172e-05 0 0.15342081 3.8915816e-05 0 0.040317945 -2.0736958e-05 0 
0.11447091 0.00014865928 0 0.11387902 8.8140558e-05 0 0.11263778 6.561762e-05 0 
0.13699329 7.8622041e-05 0 0.12765026 -1.0280315e-05 0 0.12072664 -0.00029801953 0 
0.10265078 -0.0032617934 0 0.13353851 6.5621272e-05 0 0.12835859 0.00017383188 0 
0.12324474 0.00015471737 0 0.1271987 6.3532454e-05 0 0.092509337 0.00097677112 0 
0.098449536 0.0010802778 0 0.094759673 0.0015889335 0 0.093189232 0.0011981683 0 
0.097123764 0.0025797177 0 0.091567174 -0.00080394465 0 0.09104012 0.00049426965 0 
0.078120545 8.5163272e-05 0 0.081629746 3.5990633e-05 0 0.085296601 0.00020514235 0 
0.1035465 0.0012665318 0 0.11257504 0.00078445079 0 0.063584998 7.1473944e-05 0 
0.05597575 2.9456738e-05 0 0.057638779 4.1974046e-05 0 0.06416703 4.5017787e-05 0 
0.072610661 0.0001088004 0 0.10929795 0.0008243855 0 0.1082239 0.0011298333 0 
0.10519978 0.0017353209 0 0.097570412 -0.00086109166 0 0.091819227 -0.0007481522 0 
0.084859148 -0.00044208043 0 0.098722473 -0.0025221247 0 0.1007598 -0.0030713656 0 
0.089506313 -0.00015625682 0 0.092087746 -0.00063147797 0 0.091021337 -0.00030949531 0 
0.15292747 1.6381266e-05 0 0.04735747 3.4079541e-05 0 0.04977525 8.1887974e-06 0 
0.059691448 0.00014512488 0 0.063983016 9.1944719e-05 0 0.054720107 0.00015832974 0 
0.11209821 0.00058009243 0 0.11195579 0.00034176229 0 0.11485627 8.3598599e-05 0 
0.1158959 0.00025512709 0 0.10335844 0.0017040643 0 0.10285921 0.002432721 0 
0.10502659 -0.00085298502 0 0.11320306 -0.00056730112 0 0.045814756 0.00015374486 0 
0.11931076 -8.5872871e-06 0 0.12194773 -6.9905371e-05 0 0.11644428 -0.000295228 0 
0.070938371 7.2929543e-05 0 0.073729493 0.0001080599 0 0.077992097 6.9251982e-05 0 
0.075765528 4.9884289e-05 0 0.10972796 -0.0005455786 0 0.11238719 -9.7034761e-05 0 
0.11052167 -0.00030136885 0 0.13683191 0.00011337335 0 0.14186741 4.496552e-05 0 
0.078379877 -0.00018094934 0 0.071854375 4.0193434e-05 0 0.10114297 0.0030256433 0 
0.12767036 0.00012150768 0 0.13026337 8.8475193e-05 0 0.12526558 6.2562853e-05 0 