# vtk DataFile Version 3.0
SAMModel Output
ASCII
DATASET UNSTRUCTURED_GRID
POINTS 405 float
8.5 -22.5 26 21.5 -22.5 26 8.5 22.5 26 21.5 22.5 26 7.5 -23.5 25 22.5 -23.5 25 7.5 23.5 25 22.5 23.5 25 189.912 -19.727301 25 
189.912 19.727301 25 219.616 -19.727301 25 219.616 19.727301 25 157.412 -19.727301 25 157.412 19.727301 25 187.116 -19.727301 25 187.116 19.727301 25 124.912 -19.727301 25 124.912 19.727301 25 
154.616 -19.727301 25 154.616 19.727301 25 59.912201 -19.727301 25 59.912201 19.727301 25 89.615601 -19.727301 25 89.615601 19.727301 25 57.115601 -19.727301 25 27.412201 -19.727301 25 57.115601 19.727301 25 
27.412201 19.727301 25 92.412201 -19.727301 25 92.412201 19.727301 25 122.116 -19.727301 25 122.116 19.727301 25 0 -25 25 210.935 -25 25 210.935 25 25 0 -25 5 
0 -20 2e-15 0 20 -2e-15 0 25 5 0 25 25 250 4e-15 25 8.5 -11.25 26 8.5 2e-15 26 8.5 11.25 26 21.5 11.25 26 
21.5 2e-15 26 21.5 -11.25 26 189.912 -9.8636398 25 189.912 -1.14e-12 25 189.912 9.8636398 25 209.714 -19.727301 25 199.813 -19.727301 25 219.616 9.8636398 25 219.616 -1.13e-12 25 
219.616 -9.8636398 25 199.813 19.727301 25 209.714 19.727301 25 157.412 -9.8636398 25 157.412 -9.0499998e-13 25 157.412 9.8636398 25 177.214 -19.727301 25 167.313 -19.727301 25 187.116 9.8636398 25 
187.116 -9.0899998e-13 25 187.116 -9.8636398 25 167.313 19.727301 25 177.214 19.727301 25 124.912 -9.8636398 25 124.912 -6.7799997e-13 25 124.912 9.8636398 25 144.714 -19.727301 25 134.813 -19.727301 25 
154.616 9.8636398 25 154.616 -6.8100002e-13 25 154.616 -9.8636398 25 134.813 19.727301 25 144.714 19.727301 25 59.912201 -9.8636398 25 59.912201 -2.3399999e-13 25 59.912201 9.8636398 25 79.7145 -19.727301 25 
69.813301 -19.727301 25 89.615601 9.8636398 25 89.615601 -2.2999999e-13 25 89.615601 -9.8636398 25 69.813301 19.727301 25 79.7145 19.727301 25 47.2145 -19.727301 25 37.313301 -19.727301 25 57.115601 9.8636398 25 
57.115601 -2.9999999e-15 25 57.115601 -9.8636398 25 37.313301 19.727301 25 47.2145 19.727301 25 27.412201 -9.8636398 25 27.412201 -5.9999998e-15 25 27.412201 9.8636398 25 92.412201 -9.8636398 25 92.412201 -4.5800001e-13 25 
92.412201 9.8636398 25 112.214 -19.727301 25 102.313 -19.727301 25 122.116 9.8636398 25 122.116 -4.61e-13 25 122.116 -9.8636398 25 102.313 19.727301 25 112.214 19.727301 25 11.1019 -25 25 
22.203699 -25 25 33.305599 -25 25 44.407501 -25 25 55.5093 -25 25 66.611198 -25 25 77.713097 -25 25 88.814903 -25 25 99.916801 -25 25 111.019 -25 25 
122.121 -25 25 133.222 -25 25 144.32401 -25 25 155.42599 -25 25 166.528 -25 25 177.63 -25 25 188.73199 -25 25 199.834 -25 25 210.037 -22.306801 16.90921 
209.17799 -19.516001 8.8473597 208.724 -16.9247 4.55334 208.28101 -11.9787 2.1508999 207.843 -3.5464201 0.20550001 207.89101 5.1032701 0.41909999 208.31 12.3557 2.2792001 208.724 16.9247 4.55334 209.17799 19.516001 8.8473597 210.037 22.306801 16.90921 
199.834 25 25 188.73199 25 25 177.63 25 25 166.528 25 25 155.42599 25 25 144.32401 25 25 133.222 25 25 122.121 25 25 111.019 25 25 
99.916801 25 25 88.814903 25 25 77.713097 25 25 66.611198 25 25 55.5093 25 25 44.407501 25 25 33.305599 25 25 22.203699 25 25 11.1019 25 25 
0 -25 15 0 -23.535101 1.464 0 6.6666698 0 0 -6.6666698 0 0 23.535999 1.4649 0 25 15 22.5 11.75 25 22.5 1e-15 25 22.5 -11.75 25 
7.5 -11.75 25 7.5 1e-15 25 7.5 11.75 25 221.229 24.293501 25 231.26401 21.9114 25 240.509 17.3799 25 247.508 9.9070101 25 247.508 -9.9069901 25 240.509 -17.3799 25 
231.26401 -21.9114 25 221.229 -24.293501 25 -5.6400001e-10 -15 25 -4.23e-10 -5 25 -2.8200001e-10 5 25 -1.41e-10 15 25 11.0546 -25 15.10048 22.1091 -25 15.20097 33.1637 -25 15.30145 
44.2183 -25 15.40194 55.2728 -25 15.50242 66.3274 -25 15.60291 77.382004 -25 15.70339 88.4366 -25 15.80388 99.491096 -25 15.90436 110.546 -25 16.00485 121.6 -25 16.10533 132.655 -25 16.20582 
143.709 -25 16.306299 154.783 -24.975901 16.401211 165.875 -24.751699 16.45158 176.948 -24.325001 16.47826 187.99699 -23.7351 16.5319 199.024 -23.0366 16.66535 11.0094 -25 5.2024899 22.018801 -25 5.4049802 33.028099 -25 5.60748 
44.037498 -25 5.8099699 55.046902 -25 6.0124602 66.056297 -25 6.2149601 77.065697 -25 6.41745 88.074997 -25 6.6199398 99.084396 -25 6.8224301 110.094 -25 7.02493 121.103 -25 7.2274199 132.11301 -25 7.4299102 
143.12199 -25 7.6324 154.203 -24.9622 7.82585 165.371 -24.5242 7.9257002 176.463 -23.660601 7.9679699 187.455 -22.452 8.06248 198.347 -21.0147 8.3302698 10.9854 -23.433701 1.3655 21.9709 -23.3118 1.2542 32.956402 -23.1637 1.1284 
43.941799 -22.9813 0.98629999 54.9272 -22.753201 0.8265 65.912697 -22.462299 0.64829999 76.898102 -22.084801 0.45519999 87.883598 -21.5924 0.26030001 98.869003 -20.955999 0.092299998 109.854 -20.146601 0.0022 120.84 -19.708 2e-15 131.825 -19.3601 2e-15 
142.811 -19.012199 2e-15 153.83 -18.6707 0.0177 164.907 -18.408701 0.25639999 175.97 -18.2206 0.77450001 187.056 -18.561701 1.8238 197.951 -18.0655 3.2592001 10.9621 -19.577801 2e-15 21.924299 -19.1556 2e-15 32.886398 -18.7335 2e-15 
43.848598 -18.3113 2e-15 54.810699 -17.889099 2e-15 65.772903 -17.4669 2e-15 76.735001 -17.0448 2e-15 87.697197 -16.622601 2e-15 98.659302 -16.200399 2e-15 109.621 -15.7782 2e-15 120.584 -15.3561 2e-15 131.54601 -14.9339 2e-15 
142.508 -14.5117 2e-15 153.478 -14.0914 0.0087000001 164.46201 -13.6972 0.1397 175.442 -13.3268 0.41780001 186.411 -12.9539 0.84829998 197.36099 -12.528 1.4365 10.9391 -6.50244 0 21.878201 -6.3382201 0 32.817299 -6.1739998 0 
43.756302 -6.0097699 0 54.6954 -5.8455501 0 65.634499 -5.6813302 0 76.573601 -5.5170999 0 87.512703 -5.35288 0 98.451797 -5.1886501 0 109.391 -5.0244298 0 120.33 -4.8602099 0 131.269 -4.6959801 0 
142.20799 -4.5317602 0 153.147 -4.36759 0.00069999998 164.08701 -4.2042599 0.0135 175.026 -4.0416999 0.040399998 185.965 -3.8790901 0.081100002 196.90401 -3.7148499 0.1363 10.9416 6.5843801 0 21.8832 6.5021 0 32.824902 6.4198198 0 
43.766499 6.3375301 0 54.708099 6.25525 0 65.649696 6.1729598 0 76.591301 6.0906801 0 87.532898 6.0084 0 98.474602 5.9261098 0 109.416 5.8438301 0 120.358 5.7615399 0 131.299 5.6792598 0 
142.241 5.5969801 0 153.183 5.5148201 0.0012000001 164.125 5.4349098 0.022500001 175.06799 5.3573899 0.070500001 186.00999 5.2802801 0.1488 196.951 5.19873 0.26350001 10.9637 19.5977 -2e-15 21.927299 19.195299 -2e-15 32.890999 18.792999 -2e-15 
43.854698 18.390699 -2e-15 54.818298 17.9883 -2e-15 65.781998 17.586 -2e-15 76.745697 17.183701 -2e-15 87.709396 16.7813 -2e-15 98.672997 16.379 -2e-15 109.637 15.9767 -2e-15 120.6 15.5744 -2e-15 131.564 15.172 -2e-15 
142.528 14.7697 -2e-15 153.5 14.3693 0.0091000004 164.48801 13.9973 0.146 175.472 13.6512 0.43799999 186.444 13.3029 0.89289999 197.39301 12.8969 1.5178 10.9854 23.434601 1.3664 21.9709 23.312799 1.2551 32.956402 23.164801 1.1293 
43.941799 22.982401 0.98710001 54.9272 22.7544 0.82730001 65.912697 22.4636 0.64899999 76.898102 22.0861 0.4558 87.883598 21.5938 0.26069999 98.869003 20.9573 0.092500001 109.854 20.1478 0.0022 120.84 19.708401 -2e-15 131.825 19.360399 -2e-15 
142.811 19.012501 -2e-15 153.83 18.671 0.0177 164.907 18.408899 0.25639999 175.97 18.2208 0.77450001 187.056 18.561899 1.8239 197.951 18.0655 3.2592499 11.0094 25 5.2024899 22.018801 25 5.4049802 33.028099 25 5.60748 
44.037498 25 5.8099699 55.046902 25 6.0124602 66.056297 25 6.2149501 77.065697 25 6.41745 88.074997 25 6.6199398 99.084396 25 6.8224301 110.094 25 7.02492 121.103 25 7.2274199 132.11301 25 7.4299102 
143.12199 25 7.6324 154.203 24.9622 7.82585 165.371 24.5242 7.9257002 176.463 23.660601 7.9679699 187.455 22.452 8.06248 198.347 21.014601 8.3302698 11.0546 25 15.10048 22.1091 25 15.20097 33.1637 25 15.30145 
44.2183 25 15.40194 55.2728 25 15.50242 66.3274 25 15.60291 77.382004 25 15.70339 88.4366 25 15.80388 99.491096 25 15.90436 110.546 25 16.00485 121.6 25 16.10533 132.655 25 16.20582 
143.709 25 16.306299 154.783 24.975901 16.401211 165.875 24.751699 16.45158 176.948 24.325001 16.47826 187.99699 23.7351 16.5319 199.024 23.0366 16.66535 231.299 -10.0813 25 238.935 0.34922799 25 237.784 7.7221599 25 
236.27499 13.6271 25 228.517 8.3394804 25 229.183 -0.317871 25 229.077 16.0009 25 239.162 -6.1834002 25 228.01801 -17.280701 25 0 18.488001 6.0346899 0 -7.3379302 10.85936 0 5.6764398 11.32056 
0 15.4762 13.58547 0 -16.7087 14.77372 0 11.8612 6.9015098 0 -17.4674 7.1072998 219.201 21.1612 17.40748 228.339 18.3239 17.34342 236.084 13.6932 17.053619 217.64799 18.255899 10.47656 241.84801 7.5612898 17.28474 
236.905 4.1303802 11.68075 244.125 0.085012503 17.578011 233.035 -8.81989 10.62788 227.181 -5.8655701 6.1313 215.105 -9.30832 2.7118199 223.269 -10.4214 5.9791999 219.655 -20.9909 17.2421 228.785 -18.1362 17.345039 236.61 -13.6661 17.46983 
242.228 -7.7940698 17.81904 218.351 -17.8358 10.06929 226.448 -14.5698 10.38975 222.54401 2.2405801 3.4026501 238.854 -0.78013402 12.6625 234.507 -1.18188 9.4460001 229.282 0.98295897 6.3064198 223.147 8.5781002 5.1928 216.606 15.0649 5.70225 
216.993 -14.1008 5.2162499 238.44299 -5.8324399 13.43798 220.914 -5.1108699 3.3019199 215.901 10.0928 3.1951799 215.229 3.7565701 1.4125 214.44901 -3.4015999 1.191 222.23599 13.0424 6.7629399 225.33 15.3479 10.58385 230.98599 9.00807 9.3984699 

CELLS 268 1333
4 32 107 177 153 4 107 108 178 177 4 108 109 179 178 
4 109 110 180 179 4 110 111 181 180 4 111 112 182 181 
4 112 113 183 182 4 113 114 184 183 4 114 115 185 184 
4 115 116 186 185 4 116 117 187 186 4 117 118 188 187 
4 118 119 189 188 4 119 120 190 189 4 120 121 191 190 
4 121 122 192 191 4 122 123 193 192 4 123 124 194 193 
4 124 33 125 194 4 153 177 195 35 4 177 178 196 195 
4 178 179 197 196 4 179 180 198 197 4 180 181 199 198 
4 181 182 200 199 4 182 183 201 200 4 183 184 202 201 
4 184 185 203 202 4 185 186 204 203 4 186 187 205 204 
4 187 188 206 205 4 188 189 207 206 4 189 190 208 207 
4 190 191 209 208 4 191 192 210 209 4 192 193 211 210 
4 193 194 212 211 4 194 125 126 212 4 35 195 213 154 
4 195 196 214 213 4 196 197 215 214 4 197 198 216 215 
4 198 199 217 216 4 199 200 218 217 4 200 201 219 218 
4 201 202 220 219 4 202 203 221 220 4 203 204 222 221 
4 204 205 223 222 4 205 206 224 223 4 206 207 225 224 
4 207 208 226 225 4 208 209 227 226 4 209 210 228 227 
4 210 211 229 228 4 211 212 230 229 4 212 126 127 230 
4 154 213 231 36 4 213 214 232 231 4 214 215 233 232 
4 215 216 234 233 4 216 217 235 234 4 217 218 236 235 
4 218 219 237 236 4 219 220 238 237 4 220 221 239 238 
4 221 222 240 239 4 222 223 241 240 4 223 224 242 241 
4 224 225 243 242 4 225 226 244 243 4 226 227 245 244 
4 227 228 246 245 4 228 229 247 246 4 229 230 248 247 
4 230 127 128 248 4 36 231 249 156 4 231 232 250 249 
4 232 233 251 250 4 233 234 252 251 4 234 235 253 252 
4 235 236 254 253 4 236 237 255 254 4 237 238 256 255 
4 238 239 257 256 4 239 240 258 257 4 240 241 259 258 
4 241 242 260 259 4 242 243 261 260 4 243 244 262 261 
4 244 245 263 262 4 245 246 264 263 4 246 247 265 264 
4 247 248 266 265 4 248 128 129 266 4 156 249 267 155 
4 249 250 268 267 4 250 251 269 268 4 251 252 270 269 
4 252 253 271 270 4 253 254 272 271 4 254 255 273 272 
4 255 256 274 273 4 256 257 275 274 4 257 258 276 275 
4 258 259 277 276 4 259 260 278 277 4 260 261 279 278 
4 261 262 280 279 4 262 263 281 280 4 263 264 282 281 
4 264 265 283 282 4 265 266 284 283 4 266 129 130 284 
4 155 267 285 37 4 267 268 286 285 4 268 269 287 286 
4 269 270 288 287 4 270 271 289 288 4 271 272 290 289 
4 272 273 291 290 4 273 274 292 291 4 274 275 293 292 
4 275 276 294 293 4 276 277 295 294 4 277 278 296 295 
4 278 279 297 296 4 279 280 298 297 4 280 281 299 298 
4 281 282 300 299 4 282 283 301 300 4 283 284 302 301 
4 284 130 131 302 4 37 285 303 157 4 285 286 304 303 
4 286 287 305 304 4 287 288 306 305 4 288 289 307 306 
4 289 290 308 307 4 290 291 309 308 4 291 292 310 309 
4 292 293 311 310 4 293 294 312 311 4 294 295 313 312 
4 295 296 314 313 4 296 297 315 314 4 297 298 316 315 
4 298 299 317 316 4 299 300 318 317 4 300 301 319 318 
4 301 302 320 319 4 302 131 132 320 4 157 303 321 38 
4 303 304 322 321 4 304 305 323 322 4 305 306 324 323 
4 306 307 325 324 4 307 308 326 325 4 308 309 327 326 
4 309 310 328 327 4 310 311 329 328 4 311 312 330 329 
4 312 313 331 330 4 313 314 332 331 4 314 315 333 332 
4 315 316 334 333 4 316 317 335 334 4 317 318 336 335 
4 318 319 337 336 4 319 320 338 337 4 320 132 133 338 
4 38 321 339 158 4 321 322 340 339 4 322 323 341 340 
4 323 324 342 341 4 324 325 343 342 4 325 326 344 343 
4 326 327 345 344 4 327 328 346 345 4 328 329 347 346 
4 329 330 348 347 4 330 331 349 348 4 331 332 350 349 
4 332 333 351 350 4 333 334 352 351 4 334 335 353 352 
4 335 336 354 353 4 336 337 355 354 4 337 338 356 355 
4 338 133 134 356 4 158 339 152 39 4 339 340 151 152 
4 340 341 150 151 4 341 342 149 150 4 342 343 148 149 
4 343 344 147 148 4 344 345 146 147 4 345 346 145 146 
4 346 347 144 145 4 347 348 143 144 4 348 349 142 143 
4 349 350 141 142 4 350 351 140 141 4 351 352 139 140 
4 352 353 138 139 4 353 354 137 138 4 354 355 136 137 
4 355 356 135 136 4 356 134 34 135 4 154 36 372 35 
4 368 367 156 155 4 38 158 369 366 4 175 368 369 176 
4 158 39 176 369 4 32 153 370 173 4 174 173 370 367 
4 174 367 368 175 4 37 366 371 155 4 35 372 370 153 
4 37 157 38 366 4 372 36 156 367 4 385 384 172 171 
4 384 125 33 172 4 385 389 388 384 4 389 385 386 380 
4 394 390 393 404 4 378 377 375 404 4 404 403 402 394 
4 402 403 376 395 4 373 376 403 374 4 374 166 165 373 
4 166 374 375 167 4 376 373 134 133 4 395 376 133 132 
4 404 393 392 378 4 395 399 394 402 4 401 400 130 129 
4 386 387 397 380 4 379 391 397 387 4 403 404 375 374 
4 40 379 387 169 4 379 40 168 377 4 373 165 34 134 
4 131 399 395 132 4 128 382 401 129 4 382 396 383 398 
4 388 389 383 396 4 125 384 388 126 4 167 375 377 168 
4 391 379 377 378 4 393 390 398 381 4 392 393 381 380 
4 391 392 380 397 4 396 127 126 388 4 381 383 389 380 
4 171 170 386 385 4 170 169 387 386 4 130 400 399 131 
4 396 382 128 127 4 398 390 400 401 4 390 394 399 400 
3 370 372 367 3 371 366 369 3 371 368 155 
3 371 369 368 3 383 381 398 3 401 382 398 
3 391 378 392 

CELL_TYPES 268
9 9 9 9 9 9 9 9 9 9 9 9 9 9 9 9 9 9 9 9 
9 9 9 9 9 9 9 9 9 9 9 9 9 9 9 9 9 9 9 9 
9 9 9 9 9 9 9 9 9 9 9 9 9 9 9 9 9 9 9 9 
9 9 9 9 9 9 9 9 9 9 9 9 9 9 9 9 9 9 9 9 
9 9 9 9 9 9 9 9 9 9 9 9 9 9 9 9 9 9 9 9 
9 9 9 9 9 9 9 9 9 9 9 9 9 9 9 9 9 9 9 9 
9 9 9 9 9 9 9 9 9 9 9 9 9 9 9 9 9 9 9 9 
9 9 9 9 9 9 9 9 9 9 9 9 9 9 9 9 9 9 9 9 
9 9 9 9 9 9 9 9 9 9 9 9 9 9 9 9 9 9 9 9 
9 9 9 9 9 9 9 9 9 9 9 9 9 9 9 9 9 9 9 9 
9 9 9 9 9 9 9 9 9 9 9 9 9 9 9 9 9 9 9 9 
9 9 9 9 9 9 9 9 9 9 9 9 9 9 9 9 9 9 9 9 
9 9 9 9 9 9 9 9 9 9 9 9 9 9 9 9 9 9 9 9 
9 5 5 5 5 5 5 5 

POINT_DATA 405
VECTORS RF float
0 0 0 0 0 0 0 0 0 
0 0 0 0 0 0 0 0 0 
0 0 0 0 0 0 0 0 0 
0 0 0 0 0 0 0 0 0 
0 0 0 0 0 0 0 0 0 
0 0 0 0 0 0 0 0 0 
0 0 0 0 0 0 0 0 0 
0 0 0 0 0 0 0 0 0 
0 0 0 0 0 0 0 0 0 
0 0 0 0 0 0 0 0 0 
0 0 0 0 0 0 21349026 -7200649.5 576375.5 
0 0 0 0 0 0 0 0 0 
0 0 0 0 0 0 0 0 0 
21094520 7221853 568354.38 -27853118 -266661.56 8309600.5 0 0 0 
0 0 0 0 0 0 0 0 0 
0 0 0 0 0 0 0 0 0 
0 0 0 0 0 0 0 0 0 
0 0 0 0 0 0 0 0 0 
0 0 0 0 0 0 0 0 0 
0 0 0 0 0 0 0 0 0 
0 0 0 0 0 0 0 0 0 
0 0 0 0 0 0 0 0 0 
0 0 0 0 0 0 0 0 0 
0 0 0 0 0 0 0 0 0 
0 0 0 0 0 0 0 0 0 
0 0 0 0 0 0 0 0 0 
0 0 0 0 0 0 0 0 0 
0 0 0 0 0 0 0 0 0 
0 0 0 0 0 0 0 0 0 
0 0 0 0 0 0 0 0 0 
0 0 0 0 0 0 0 0 0 
0 0 0 0 0 0 0 0 0 
0 0 0 0 0 0 0 0 0 
0 0 0 0 0 0 0 0 0 
0 0 0 0 0 0 0 0 0 
0 0 0 0 0 0 0 0 0 
0 0 0 0 0 0 0 0 0 
0 0 0 0 0 0 0 0 0 
0 0 0 0 0 0 0 0 0 
0 0 0 0 0 0 0 0 0 
0 0 0 0 0 0 0 0 0 
0 0 0 0 0 0 0 0 0 
0 0 0 0 0 0 0 0 0 
0 0 0 0 0 0 0 0 0 
0 0 0 0 0 0 0 0 0 
0 0 0 0 0 0 0 0 0 
0 0 0 0 0 0 0 0 0 
0 0 0 0 0 0 0 0 0 
0 0 0 0 0 0 0 0 0 
0 0 0 0 0 0 0 0 0 
0 0 0 0 0 0 0 0 0 
0 0 0 0 0 0 0 0 0 
0 0 0 0 0 0 0 0 0 
0 0 0 0 0 0 0 0 0 
0 0 0 0 0 0 0 0 0 
0 0 0 0 0 0 0 0 0 
0 0 0 0 0 0 0 0 0 
0 0 0 0 0 0 0 0 0 
0 0 0 0 0 0 0 0 0 
0 0 0 0 0 0 0 0 0 
0 0 0 0 0 0 0 0 0 
0 0 0 0 0 0 0 0 0 
0 0 0 0 0 0 0 0 0 
0 0 0 0 0 0 0 0 0 
0 0 0 0 0 0 0 0 0 
0 0 0 0 0 0 0 0 0 
0 0 0 0 0 0 0 0 0 
0 0 0 0 0 0 0 0 0 
0 0 0 0 0 0 0 0 0 
0 0 0 0 0 0 0 0 0 
0 0 0 0 0 0 0 0 0 
0 0 0 0 0 0 0 0 0 
0 0 0 0 0 0 0 0 0 
0 0 0 0 0 0 0 0 0 
0 0 0 0 0 0 0 0 0 
0 0 0 0 0 0 0 0 0 
0 0 0 0 0 0 0 0 0 
0 0 0 0 0 0 0 0 0 
0 0 0 0 0 0 0 0 0 
0 0 0 0 0 0 0 0 0 
0 0 0 0 0 0 0 0 0 
0 0 0 0 0 0 0 0 0 
0 0 0 0 0 0 0 0 0 
0 0 0 0 0 0 0 0 0 
0 0 0 0 0 0 0 0 0 
0 0 0 0 0 0 0 0 0 
0 0 0 0 0 0 0 0 0 
0 0 0 0 0 0 0 0 0 
0 0 0 0 0 0 0 0 0 
0 0 0 0 0 0 0 0 0 
0 0 0 0 0 0 0 0 0 
0 0 0 0 0 0 0 0 0 
0 0 0 0 0 0 0 0 0 
0 0 0 0 0 0 0 0 0 
0 0 0 0 0 0 0 0 0 
0 0 0 0 0 0 0 0 0 
0 0 0 0 0 0 0 0 0 
0 0 0 0 0 0 0 0 0 
0 0 0 0 0 0 0 0 0 
0 0 0 0 0 0 0 0 0 
0 0 0 0 0 0 0 0 0 
0 0 0 0 0 0 0 0 0 
0 0 0 0 0 0 0 0 0 
0 0 0 0 0 0 0 0 0 
0 0 0 0 0 0 0 0 0 
0 0 0 0 0 0 0 0 0 
0 0 0 0 0 0 0 0 0 
0 0 0 0 0 0 0 0 0 
0 0 0 0 0 0 0 0 0 
0 0 0 0 0 0 0 0 0 
0 0 0 0 0 0 0 0 0 
0 0 0 0 0 0 0 0 0 
0 0 0 0 0 0 0 0 0 
0 0 0 0 0 0 0 0 0 
0 0 0 0 0 0 0 0 0 
0 0 0 0 0 0 0 0 0 
0 0 0 0 0 0 0 0 0 
0 0 0 0 0 0 0 0 0 
0 0 0 0 0 0 0 0 0 
0 0 0 0 0 0 0 0 0 
0 0 0 0 0 0 0 0 0 
0 0 0 0 0 0 0 0 0 
0 0 0 0 0 0 0 0 0 
0 0 0 0 0 0 0 0 0 
0 0 0 0 0 0 0 0 0 
0 0 0 0 0 0 0 0 0 
0 0 0 0 0 0 0 0 0 
0 0 0 0 0 0 0 0 0 
0 0 0 0 0 0 0 0 0 
0 0 0 0 0 0 0 0 0 
0 0 0 0 0 0 0 0 0 
0 0 0 0 0 0 0 0 0 
0 0 0 0 0 0 0 0 0 
0 0 0 0 0 0 0 0 0 
0 0 0 0 0 0 0 0 0 
VECTORS RM float
0 0 0 0 0 0 0 0 0 
0 0 0 0 0 0 0 0 0 
0 0 0 0 0 0 0 0 0 
0 0 0 0 0 0 0 0 0 
0 0 0 0 0 0 0 0 0 
0 0 0 0 0 0 0 0 0 
0 0 0 0 0 0 0 0 0 
0 0 0 0 0 0 0 0 0 
0 0 0 0 0 0 0 0 0 
0 0 0 0 0 0 0 0 0 
0 0 0 0 0 0 516702.97 12865487 -2718157.5 
0 0 0 0 0 0 0 0 0 
0 0 0 0 0 0 0 0 0 
-788358 17550106 77811.844 1003936.4 60960124 1610431.9 0 0 0 
0 0 0 0 0 0 0 0 0 
0 0 0 0 0 0 0 0 0 
0 0 0 0 0 0 0 0 0 
0 0 0 0 0 0 0 0 0 
0 0 0 0 0 0 0 0 0 
0 0 0 0 0 0 0 0 0 
0 0 0 0 0 0 0 0 0 
0 0 0 0 0 0 0 0 0 
0 0 0 0 0 0 0 0 0 
0 0 0 0 0 0 0 0 0 
0 0 0 0 0 0 0 0 0 
0 0 0 0 0 0 0 0 0 
0 0 0 0 0 0 0 0 0 
0 0 0 0 0 0 0 0 0 
0 0 0 0 0 0 0 0 0 
0 0 0 0 0 0 0 0 0 
0 0 0 0 0 0 0 0 0 
0 0 0 0 0 0 0 0 0 
0 0 0 0 0 0 0 0 0 
0 0 0 0 0 0 0 0 0 
0 0 0 0 0 0 0 0 0 
0 0 0 0 0 0 0 0 0 
0 0 0 0 0 0 0 0 0 
0 0 0 0 0 0 0 0 0 
0 0 0 0 0 0 0 0 0 
0 0 0 0 0 0 0 0 0 
0 0 0 0 0 0 0 0 0 
0 0 0 0 0 0 0 0 0 
0 0 0 0 0 0 0 0 0 
0 0 0 0 0 0 0 0 0 
0 0 0 0 0 0 0 0 0 
0 0 0 0 0 0 0 0 0 
0 0 0 0 0 0 0 0 0 
0 0 0 0 0 0 0 0 0 
0 0 0 0 0 0 0 0 0 
0 0 0 0 0 0 0 0 0 
0 0 0 0 0 0 0 0 0 
0 0 0 0 0 0 0 0 0 
0 0 0 0 0 0 0 0 0 
0 0 0 0 0 0 0 0 0 
0 0 0 0 0 0 0 0 0 
0 0 0 0 0 0 0 0 0 
0 0 0 0 0 0 0 0 0 
0 0 0 0 0 0 0 0 0 
0 0 0 0 0 0 0 0 0 
0 0 0 0 0 0 0 0 0 
0 0 0 0 0 0 0 0 0 
0 0 0 0 0 0 0 0 0 
0 0 0 0 0 0 0 0 0 
0 0 0 0 0 0 0 0 0 
0 0 0 0 0 0 0 0 0 
0 0 0 0 0 0 0 0 0 
0 0 0 0 0 0 0 0 0 
0 0 0 0 0 0 0 0 0 
0 0 0 0 0 0 0 0 0 
0 0 0 0 0 0 0 0 0 
0 0 0 0 0 0 0 0 0 
0 0 0 0 0 0 0 0 0 
0 0 0 0 0 0 0 0 0 
0 0 0 0 0 0 0 0 0 
0 0 0 0 0 0 0 0 0 
0 0 0 0 0 0 0 0 0 
0 0 0 0 0 0 0 0 0 
0 0 0 0 0 0 0 0 0 
0 0 0 0 0 0 0 0 0 
0 0 0 0 0 0 0 0 0 
0 0 0 0 0 0 0 0 0 
0 0 0 0 0 0 0 0 0 
0 0 0 0 0 0 0 0 0 
0 0 0 0 0 0 0 0 0 
0 0 0 0 0 0 0 0 0 
0 0 0 0 0 0 0 0 0 
0 0 0 0 0 0 0 0 0 
0 0 0 0 0 0 0 0 0 
0 0 0 0 0 0 0 0 0 
0 0 0 0 0 0 0 0 0 
0 0 0 0 0 0 0 0 0 
0 0 0 0 0 0 0 0 0 
0 0 0 0 0 0 0 0 0 
0 0 0 0 0 0 0 0 0 
0 0 0 0 0 0 0 0 0 
0 0 0 0 0 0 0 0 0 
0 0 0 0 0 0 0 0 0 
0 0 0 0 0 0 0 0 0 
0 0 0 0 0 0 0 0 0 
0 0 0 0 0 0 0 0 0 
0 0 0 0 0 0 0 0 0 
0 0 0 0 0 0 0 0 0 
0 0 0 0 0 0 0 0 0 
0 0 0 0 0 0 0 0 0 
0 0 0 0 0 0 0 0 0 
0 0 0 0 0 0 0 0 0 
0 0 0 0 0 0 0 0 0 
0 0 0 0 0 0 0 0 0 
0 0 0 0 0 0 0 0 0 
0 0 0 0 0 0 0 0 0 
0 0 0 0 0 0 0 0 0 
0 0 0 0 0 0 0 0 0 
0 0 0 0 0 0 0 0 0 
0 0 0 0 0 0 0 0 0 
0 0 0 0 0 0 0 0 0 
0 0 0 0 0 0 0 0 0 
0 0 0 0 0 0 0 0 0 
0 0 0 0 0 0 0 0 0 
0 0 0 0 0 0 0 0 0 
0 0 0 0 0 0 0 0 0 
0 0 0 0 0 0 0 0 0 
0 0 0 0 0 0 0 0 0 
0 0 0 0 0 0 0 0 0 
0 0 0 0 0 0 0 0 0 
0 0 0 0 0 0 0 0 0 
0 0 0 0 0 0 0 0 0 
0 0 0 0 0 0 0 0 0 
0 0 0 0 0 0 0 0 0 
0 0 0 0 0 0 0 0 0 
0 0 0 0 0 0 0 0 0 
0 0 0 0 0 0 0 0 0 
0 0 0 0 0 0 0 0 0 
0 0 0 0 0 0 0 0 0 
0 0 0 0 0 0 0 0 0 
0 0 0 0 0 0 0 0 0 
VECTORS U float
0 0 0 0 0 0 0 0 0 
0 0 0 0 0 0 0 0 0 
0 0 0 0 0 0 0 0 0 
0 0 0 0 0 0 0 0 0 
0 0 0 0 0 0 0 0 0 
0 0 0 0 0 0 0 0 0 
0 0 0 0 0 0 0 0 0 
0 0 0 0 0 0 0 0 0 
0 0 0 0 0 0 0 0 0 
0 0 0 0 0 0 0 0 0 
0 0 0 0 0 0 -2.1349027e-29 7.2006496e-30 -5.7637554e-31 
0.012530195 0.019517357 0.0085147414 0.012506833 -0.019412521 0.008583908 0.0063754371 -0.0001280623 -0.0001411103 
0.0077805063 -0.00016683215 -0.00019100359 0.007726281 0.00015312136 -0.00020093484 0.0063583604 0.00011754204 -0.00016999306 
-2.109452e-29 -7.2218529e-30 -5.6835439e-31 2.7853118e-29 2.6666155e-31 -8.3096e-30 0 0 0 
0 0 0 0 0 0 0 0 0 
0 0 0 0 0 0 0 0 0 
0 0 0 0 0 0 0 0 0 
0 0 0 0 0 0 0 0 0 
0 0 0 0 0 0 0 0 0 
0 0 0 0 0 0 0 0 0 
0 0 0 0 0 0 0 0 0 
0 0 0 0 0 0 0 0 0 
0 0 0 0 0 0 0 0 0 
0 0 0 0 0 0 0 0 0 
0 0 0 0 0 0 0 0 0 
0 0 0 0 0 0 0 0 0 
0 0 0 0 0 0 0 0 0 
0 0 0 0 0 0 0 0 0 
0 0 0 0 0 0 0 0 0 
0 0 0 0 0 0 0 0 0 
0 0 0 0 0 0 0 0 0 
0 0 0 0 0 0 0 0 0 
0 0 0 0 0 0 0 0 0 
0 0 0 0 0 0 0 0 0 
0 0 0 0 0 0 0 0 0 
0 0 0 0 0 0 -0.00089059852 -0.0022337774 0.0035678952 
-0.00066465064 -0.0035467201 0.0077686585 -0.00088350498 0.0025938747 0.011723902 -0.0006931739 0.015520572 0.015976489 
-0.00049971999 0.032099027 0.020040903 -7.4843949e-05 0.050182652 0.024036102 0.0004794219 0.067972742 0.02773439 
0.0012085168 0.084104069 0.031034535 0.0020738228 0.097322844 0.03384519 0.0030573925 0.10687673 0.035954803 
0.0041133431 0.11228807 0.037402701 0.0052254447 0.11363945 0.037925992 0.0063238335 0.11100746 0.03767807 
0.007400203 0.10393336 0.036397461 0.0084544597 0.09154205 0.034244224 0.0095636584 0.074638285 0.030467102 
0.010671418 0.055653933 0.024999611 0.011702701 0.037043907 0.017447341 0.009636851 0.010481557 0.0056178193 
0.0068376977 0.0034729114 0.0033990578 0.0055279392 0.0011657883 0.0019884976 0.0053465897 0.00038642294 0.00045388384 
0.0052590901 6.6192631e-05 -0.00092060439 0.0052569876 0.00010153741 -0.00082617544 0.0053447401 -0.00024396944 0.00056439359 
0.0055124946 -0.0010547098 0.0020518056 0.0068254918 -0.0033906368 0.0034678706 0.009597688 -0.010428561 0.0056837779 
0.011663557 -0.036909737 0.017484806 0.010649026 -0.055524491 0.025041331 0.0095274132 -0.07453613 0.030499194 
0.0084318388 -0.091446944 0.034276329 0.0073647583 -0.1038411 0.03642223 0.0063007823 -0.11091696 0.03770148 
0.0051895035 -0.11355763 0.037943784 0.0040895506 -0.11221305 0.037418202 0.0030203208 -0.1068185 0.035965119 
0.0020498901 -0.09727753 0.033852395 0.0011696272 -0.084083647 0.031037265 0.00045618956 -0.067970589 0.02773224 
-0.00011609989 -0.050219886 0.024031557 -0.00052107975 -0.032166302 0.020027719 -0.00073600834 -0.015660061 0.01596722 
-0.00090383529 -0.0027925966 0.011697565 -0.00070434803 0.0032104272 0.0077614845 -0.00092440587 0.0019273083 0.0035190859 
0.0024299778 -3.4025197e-05 -0.00012988677 0.0072813989 -0.00014689175 -0.00010771264 0.0075652101 7.2313043e-05 -0.00034785797 
0.0075422889 -7.4641095e-05 -0.00034331286 0.0072836173 0.00014765504 -0.00015046274 0.002377525 6.3016254e-05 -0.00016573777 
0 0 0 0 0 0 0 0 0 
0 0 0 0 0 0 0 0 0 
0.01412388 -0.0036728396 -0.0022638727 0.017207336 0.0077748252 -0.012944502 0.018460948 0.010199383 -0.018565148 
0.0095610842 0.0022532237 -0.0088801412 0.0094818557 -0.0021543948 -0.0089111449 0.018555868 -0.010374243 -0.01873002 
0.017392991 -0.0081872866 -0.013333584 0.014193843 0.0035718174 -0.0024080093 -0.0029781929 8.6502791e-05 -0.00027446472 
-0.0072082551 2.4168967e-05 -0.00032317269 -0.0071779881 -3.8279277e-06 -0.00031320064 -0.0027590082 -5.3300217e-05 -0.00030929345 
0.0030002159 -0.001703531 0.0036482848 0.0026153279 -0.0019751485 0.0076205651 0.0027855295 0.0023099938 0.011746123 
0.0027506338 0.0096242717 0.015899537 0.0029111679 0.018890591 0.02003995 0.0030823168 0.029121263 0.024025936 
0.0033483466 0.039504688 0.027744392 0.0036695986 0.049143061 0.031096324 0.0040417942 0.057377007 0.033888742 
0.0044554886 0.063574359 0.036099095 0.004888494 0.067489967 0.037492808 0.0053171245 0.068976104 0.038161322 
0.0057411389 0.068049654 0.037834477 0.0061328872 0.064153939 0.036608357 0.0066119758 0.056685515 0.033388186 
0.0072090984 0.046136275 0.028511027 0.0079411985 0.034034211 0.021880416 0.008766979 0.02200684 0.014263446 
0.0059527596 -1.0156785e-06 0.003712429 0.0062870397 0.00041680154 0.0075274594 0.0061082407 0.0020566666 0.011724834 
0.0061953217 0.0040398263 0.015835976 0.0061476021 0.0066230581 0.019997528 0.0061599789 0.0097586568 0.023960898 
0.0061339466 0.013194152 0.027711868 0.0060868794 0.016776701 0.031028187 0.0060060131 0.020059904 0.033881288 
0.0058826525 0.022865769 0.036044434 0.0057344609 0.025000867 0.037541654 0.005538627 0.026463076 0.038133021 
0.0052954573 0.026983669 0.037969336 0.0050191218 0.026264269 0.036562584 0.0048374254 0.023467645 0.032647554 
0.0049248706 0.019120961 0.026313083 0.0053120744 0.013896243 0.018899726 0.0059751426 0.0085093658 0.010940489 
0.0075033787 0.00022313889 0.0037213054 0.0073683914 0.00055520737 0.0076298313 0.0075209853 0.00072715047 0.011072357 
0.00742759 0.00077422906 0.014503394 0.0074189766 0.00075426709 0.017375508 0.0072809812 0.00067039649 0.019850822 
0.0071096201 0.00056258484 0.021492071 0.0068662148 0.00035676477 0.022286437 0.0065768142 0.00018063289 0.021916775 
0.0062494138 4.2016716e-05 0.020346873 0.0059372196 7.2744144e-05 0.019220134 0.0056498456 5.0739709e-05 0.018123124 
0.0053990334 8.7123379e-05 0.016771091 0.0051902882 5.853788e-05 0.015462186 0.0050054765 0.00039670806 0.014101668 
0.0048331316 0.0010000009 0.012768254 0.0046357885 0.0019225492 0.011457255 0.0049091349 0.0023183499 0.0074747084 
0.007681767 -8.163468e-05 0.0029287578 0.0077185449 -9.4930481e-05 0.0053018271 0.0076413811 -0.0001298432 0.0077872328 
0.007615841 -4.6409499e-05 0.010351577 0.0074570291 -6.0337108e-05 0.01270363 0.0072905915 8.218668e-06 0.014402586 
0.0070611518 -1.1617982e-05 0.015406988 0.0068146936 3.8709648e-05 0.015568164 0.006535002 2.1496515e-05 0.014815249 
0.0062538427 7.0920418e-05 0.013273597 0.0059698466 5.1733936e-05 0.011522732 0.0057113622 8.327399e-05 0.0097159222 
0.0054818643 6.2285952e-05 0.0079175988 0.0053138705 7.4510339e-05 0.0062697344 0.0051894668 0.00017337101 0.0050174934 
0.0050949338 0.00040848396 0.0042380686 0.0050569675 0.00057793409 0.003743076 0.0051025031 0.00064967654 0.0028038502 
0.0076042959 -1.5118389e-05 -0.0019696197 0.007560974 -4.5575205e-05 -0.0049051163 0.0075261956 -1.2198522e-05 -0.0028201742 
0.0074071931 -3.9010138e-05 0.0014485548 0.0073027862 2.8299441e-05 0.0055968272 0.0071366755 -7.5191779e-06 0.0087905973 
0.0069561941 4.6145495e-05 0.010642569 0.0067311493 1.5346408e-05 0.011023724 0.0064995913 5.9651989e-05 0.009939339 
0.0062484569 3.5814308e-05 0.0077716848 0.0060133771 7.1681367e-05 0.0050549782 0.0057832156 5.0347237e-05 0.002265339 
0.0055939499 7.6109907e-05 -0.0004075258 0.0054264865 5.187645e-05 -0.0027366069 0.0053270021 8.0965168e-05 -0.0041958774 
0.0052860561 5.1256393e-05 -0.0042159762 0.005287095 5.8355177e-05 -0.0027912338 0.0052830204 4.516184e-05 -0.0011028084 
0.007574277 1.81251e-05 -0.0019060466 0.0075747888 6.1520703e-05 -0.0049102437 0.0075066243 3.6247959e-05 -0.0026993251 
0.0074159629 7.4404277e-05 0.0015514032 0.0072903913 1.4304343e-05 0.005724112 0.0071433089 6.0552804e-05 0.0088952947 
0.0069458829 1.4835585e-05 0.01074975 0.0067359279 5.5195032e-05 0.011133008 0.0064888177 1.8748498e-05 0.010075029 
0.0062504602 5.1673691e-05 0.0079501262 0.0059998543 2.4015009e-05 0.0053039733 0.0057815416 5.5454668e-05 0.0026050967 
0.0055756969 3.845356e-05 3.3338314e-05 0.0054224995 7.549327e-05 -0.0021882178 0.0053081564 4.946845e-05 -0.0035679212 
0.0052778539 8.5030661e-05 -0.0035597798 0.0052600559 7.704099e-05 -0.0022441135 0.0052629709 0.00010311037 -0.00073352229 
0.0076868017 8.8295092e-05 0.0028885608 0.0076826396 0.00010575123 0.005294831 0.0076407245 0.0001574229 0.0077823848 
0.0075895796 7.6219767e-05 0.010407047 0.0074537988 0.00010507557 0.01276115 0.0072687692 4.2262516e-05 0.014499004 
0.0070569445 7.3924413e-05 0.015521965 0.0067948168 3.0639731e-05 0.0157208 0.0065296437 5.8760121e-05 0.015008331 
0.006233389 1.640226e-05 0.013514854 0.005962119 4.7001751e-05 0.011821018 0.0056884764 2.256691e-05 0.010072723 
0.0054719131 5.6192079e-05 0.0083299642 0.0052879085 4.9070426e-05 0.0067323139 0.0051747672 -4.4107805e-05 0.0055107065 
0.005060181 -0.00030360054 0.0047262288 0.0050302134 -0.00047666053 0.0041688331 0.0050740209 -0.00056748081 0.0030539525 
0.0074622883 -0.00022382999 0.0036883606 0.0073599541 -0.00054000068 0.0075973589 0.0074858177 -0.00070868537 0.011041142 
0.0074188272 -0.00074049778 0.014482126 0.0073879501 -0.00071756361 0.017358718 0.0072711157 -0.00062099838 0.019841392 
0.0070821126 -0.00050859089 0.021488102 0.0068560583 -0.00028888727 0.022288252 0.0065521193 -0.00010512361 0.021923011 
0.0062396438 4.8009282e-05 0.020357694 0.0059138052 2.3106577e-05 0.019231273 0.0056398762 5.8756064e-05 0.018139564 
0.0053758826 2.7147393e-05 0.016786557 0.0051802429 7.1564711e-05 0.015483729 0.0049822228 -0.00026677572 0.014119573 
0.0048223883 -0.00085541472 0.01279411 0.0046134479 -0.0017942829 0.011489689 0.0049015307 -0.0021653387 0.0075010802 
0.0059301308 -2.2453083e-05 0.0036881827 0.0062521803 -0.00044549705 0.0075088488 0.0060949894 -0.0020486456 0.011702554 
0.0061575221 -0.0040431055 0.015825504 0.0061341394 -0.0065886406 0.019983998 0.0061252406 -0.0097295819 0.023956928 
0.0061184354 -0.01314234 0.027708832 0.0060543753 -0.016720263 0.03103146 0.0059889308 -0.019986607 0.03388783 
0.0058516562 -0.02278509 0.036054894 0.005717047 -0.024906246 0.037556846 0.0055085304 -0.026364047 0.038150672 
0.0052783345 -0.026870014 0.037992366 0.0049896473 -0.026151953 0.036587626 0.0048218127 -0.023338374 0.032677308 
0.004897092 -0.01900042 0.026345374 0.0053003258 -0.013764692 0.01893628 0.0059502968 -0.0083865505 0.01098471 
0.0029719872 0.0014989473 0.0036297159 0.0025966209 0.0018485669 0.007591872 0.0027451441 -0.0024200368 0.011734493 