# vtk DataFile Version 3.0
Larger unstructured grid for converter tests
ASCII
DATASET UNSTRUCTURED_GRID
POINTS 9 float
0 0 0
1 0 0
2 0 0
0 1 0
1 1 0
2 1 0
0 2 0
1 2 0
2 2 0
CELLS 6 28
4 0 1 4 3
4 1 2 5 4
4 3 4 7 6
4 4 5 8 7
3 0 4 3
3 4 8 5
CELL_TYPES 6
9
9
9
9
5
5
POINT_DATA 9
SCALARS PVal float 1
LOOKUP_TABLE default
0.0
1.0
2.0
3.0
4.0
5.0
6.0
7.0
8.0
VECTORS PVec float
0 0 0
1 0 0
2 0 0
0 1 0
1 1 0
2 1 0
0 2 0
1 2 0
2 2 0
CELL_DATA 6
SCALARS CVal float 1
LOOKUP_TABLE default
10.0
20.0
30.0
40.0
50.0
60.0
VECTORS CVec float
1 0 0
0 1 0
1 1 0
-1 0 0
0 -1 0
0.5 0.5 0