# vtk DataFile Version 3.0
unstructured tet test
ASCII
DATASET UNSTRUCTURED_GRID
POINTS 5 float
0 0 0
1 0 0
0 1 0
0 0 1
1 1 1
CELLS 2 10
4 0 1 2 3
4 1 2 3 4
CELL_TYPES 2
10
10
POINT_DATA 5
SCALARS phi float 1
LOOKUP_TABLE default
0
1
1
1
3
CELL_DATA 2
SCALARS rho float 1
LOOKUP_TABLE default
0.1
0.2